 Entering Gaussian System, Link 0=g09
 Input=p.gjf
 Output=p.log
 Initial command:
 /mnt/e/g09/l1.exe "/mnt/e/scratch/Gau-12170.inp" -scrdir="/mnt/e/scratch/"
 Entering Link 1 = /mnt/e/g09/l1.exe PID=     12172.
  
 Copyright (c) 1988,1990,1992,1993,1995,1998,2003,2009,2013,
            Gaussian, Inc.  All Rights Reserved.
  
 This is part of the Gaussian(R) 09 program.  It is based on
 the Gaussian(R) 03 system (copyright 2003, Gaussian, Inc.),
 the Gaussian(R) 98 system (copyright 1998, Gaussian, Inc.),
 the Gaussian(R) 94 system (copyright 1995, Gaussian, Inc.),
 the Gaussian 92(TM) system (copyright 1992, Gaussian, Inc.),
 the Gaussian 90(TM) system (copyright 1990, Gaussian, Inc.),
 the Gaussian 88(TM) system (copyright 1988, Gaussian, Inc.),
 the Gaussian 86(TM) system (copyright 1986, Carnegie Mellon
 University), and the Gaussian 82(TM) system (copyright 1983,
 Carnegie Mellon University). Gaussian is a federally registered
 trademark of Gaussian, Inc.
  
 This software contains proprietary and confidential information,
 including trade secrets, belonging to Gaussian, Inc.
  
 This software is provided under written license and may be
 used, copied, transmitted, or stored only in accord with that
 written license.
  
 The following legend is applicable only to US Government
 contracts under FAR:
  
                    RESTRICTED RIGHTS LEGEND
  
 Use, reproduction and disclosure by the US Government is
 subject to restrictions as set forth in subparagraphs (a)
 and (c) of the Commercial Computer Software - Restricted
 Rights clause in FAR 52.227-19.
  
 Gaussian, Inc.
 340 Quinnipiac St., Bldg. 40, Wallingford CT 06492
  
  
 ---------------------------------------------------------------
 Warning -- This program may not be used in any manner that
 competes with the business of Gaussian, Inc. or will provide
 assistance to any competitor of Gaussian, Inc.  The licensee
 of this program is prohibited from giving any competitor of
 Gaussian, Inc. access to this program.  By using this program,
 the user acknowledges that Gaussian, Inc. is engaged in the
 business of creating and licensing software in the field of
 computational chemistry and represents and warrants to the
 licensee that it is not a competitor of Gaussian, Inc. and that
 it will not use this program in any manner prohibited above.
 ---------------------------------------------------------------
  

 Cite this work as:
 Gaussian 09, Revision D.01,
 M. J. Frisch, G. W. Trucks, H. B. Schlegel, G. E. Scuseria, 
 M. A. Robb, J. R. Cheeseman, G. Scalmani, V. Barone, B. Mennucci, 
 G. A. Petersson, H. Nakatsuji, M. Caricato, X. Li, H. P. Hratchian, 
 A. F. Izmaylov, J. Bloino, G. Zheng, J. L. Sonnenberg, M. Hada, 
 M. Ehara, K. Toyota, R. Fukuda, J. Hasegawa, M. Ishida, T. Nakajima, 
 Y. Honda, O. Kitao, H. Nakai, T. Vreven, J. A. Montgomery, Jr., 
 J. E. Peralta, F. Ogliaro, M. Bearpark, J. J. Heyd, E. Brothers, 
 K. N. Kudin, V. N. Staroverov, T. Keith, R. Kobayashi, J. Normand, 
 K. Raghavachari, A. Rendell, J. C. Burant, S. S. Iyengar, J. Tomasi, 
 M. Cossi, N. Rega, J. M. Millam, M. Klene, J. E. Knox, J. B. Cross, 
 V. Bakken, C. Adamo, J. Jaramillo, R. Gomperts, R. E. Stratmann, 
 O. Yazyev, A. J. Austin, R. Cammi, C. Pomelli, J. W. Ochterski, 
 R. L. Martin, K. Morokuma, V. G. Zakrzewski, G. A. Voth, 
 P. Salvador, J. J. Dannenberg, S. Dapprich, A. D. Daniels, 
 O. Farkas, J. B. Foresman, J. V. Ortiz, J. Cioslowski, 
 and D. J. Fox, Gaussian, Inc., Wallingford CT, 2013.
 
 ******************************************
 Gaussian 09:  ES64L-G09RevD.01 24-Apr-2013
                12-May-2019 
 ******************************************
 %nproc=8
 Will use up to    8 processors via shared memory.
 %mem=2000mw
 --------------------------------------
 #p B3LYP/6-31G* em=gd3 opt freq nosymm
 --------------------------------------
 1/14=-1,18=20,19=15,26=3,38=1/1,3;
 2/9=110,12=2,15=1,17=6,18=5,40=1/2;
 3/5=1,6=6,7=1,11=2,16=1,25=1,30=1,71=1,74=-5,124=31/1,2,3;
 4//1;
 5/5=2,38=5/2;
 6/7=2,8=2,9=2,10=2,28=1/1;
 7/30=1/1,2,3,16;
 1/14=-1,18=20,19=15,26=3/3(2);
 2/9=110,15=1/2;
 99//99;
 2/9=110,15=1/2;
 3/5=1,6=6,7=1,11=2,16=1,25=1,30=1,71=1,74=-5,124=31/1,2,3;
 4/5=5,16=3,69=1/1;
 5/5=2,38=5/2;
 7/30=1/1,2,3,16;
 1/14=-1,18=20,19=15,26=3/3(-5);
 2/9=110,15=1/2;
 6/7=2,8=2,9=2,10=2,19=2,28=1/1;
 99/9=1/99;
 Leave Link    1 at Sun May 12 21:01:11 2019, MaxMem=  2097152000 cpu:         0.8
 (Enter /mnt/e/g09/l101.exe)
 -----
 Title
 -----
 Symbolic Z-matrix:
 Charge =  0 Multiplicity = 1
 6                     0.26424  -1.39126   0.45306 
 1                     0.17745  -1.10474   1.50416 
 1                     0.27886  -2.47854   0.35607 
 6                     1.29032  -0.67734  -0.30111 
 1                     1.90364  -1.22482  -1.01507 
 6                     1.28977   0.67798  -0.30185 
 6                     0.2636    1.39198   0.45214 
 1                     0.2772    2.47915   0.35374 
 1                     1.90258   1.22516  -1.01647 
 1                     0.17804   1.10674   1.50368 
 6                    -1.44286  -0.74872  -0.17108 
 1                    -2.13899  -1.20779   0.53423 
 1                    -1.53095  -1.20757  -1.15661 
 6                    -1.44439   0.74738  -0.16898 
 1                    -1.536     1.20902  -1.15289 
 1                    -2.13952   1.20294   0.53958 
 
 Add virtual bond connecting atoms C11        and C1         Dist= 3.64D+00.
 Add virtual bond connecting atoms C14        and C7         Dist= 3.64D+00.
 NAtoms=     16 NQM=       16 NQMF=       0 NMMI=      0 NMMIF=      0
                NMic=       0 NMicF=      0.
                    Isotopes and Nuclear Properties:
 (Nuclear quadrupole moments (NQMom) in fm**2, nuclear magnetic moments (NMagM)
  in nuclear magnetons)

  Atom         1           2           3           4           5           6           7           8           9          10
 IAtWgt=          12           1           1          12           1          12          12           1           1           1
 AtmWgt=  12.0000000   1.0078250   1.0078250  12.0000000   1.0078250  12.0000000  12.0000000   1.0078250   1.0078250   1.0078250
 NucSpn=           0           1           1           0           1           0           0           1           1           1
 AtZEff=   0.0000000   0.0000000   0.0000000   0.0000000   0.0000000   0.0000000   0.0000000   0.0000000   0.0000000   0.0000000
 NQMom=    0.0000000   0.0000000   0.0000000   0.0000000   0.0000000   0.0000000   0.0000000   0.0000000   0.0000000   0.0000000
 NMagM=    0.0000000   2.7928460   2.7928460   0.0000000   2.7928460   0.0000000   0.0000000   2.7928460   2.7928460   2.7928460
 AtZNuc=   6.0000000   1.0000000   1.0000000   6.0000000   1.0000000   6.0000000   6.0000000   1.0000000   1.0000000   1.0000000

  Atom        11          12          13          14          15          16
 IAtWgt=          12           1           1          12           1           1
 AtmWgt=  12.0000000   1.0078250   1.0078250  12.0000000   1.0078250   1.0078250
 NucSpn=           0           1           1           0           1           1
 AtZEff=   0.0000000   0.0000000   0.0000000   0.0000000   0.0000000   0.0000000
 NQMom=    0.0000000   0.0000000   0.0000000   0.0000000   0.0000000   0.0000000
 NMagM=    0.0000000   2.7928460   2.7928460   0.0000000   2.7928460   2.7928460
 AtZNuc=   6.0000000   1.0000000   1.0000000   6.0000000   1.0000000   1.0000000
 Leave Link  101 at Sun May 12 21:01:12 2019, MaxMem=  2097152000 cpu:         5.2
 (Enter /mnt/e/g09/l103.exe)

 GradGradGradGradGradGradGradGradGradGradGradGradGradGradGradGradGradGrad
 Berny optimization.
 Initialization pass.
                           ----------------------------
                           !    Initial Parameters    !
                           ! (Angstroms and Degrees)  !
 --------------------------                            --------------------------
 ! Name  Definition              Value          Derivative Info.                !
 --------------------------------------------------------------------------------
 ! R1    R(1,2)                  1.0929         estimate D2E/DX2                !
 ! R2    R(1,3)                  1.0917         estimate D2E/DX2                !
 ! R3    R(1,4)                  1.4599         estimate D2E/DX2                !
 ! R4    R(1,11)                 1.9279         estimate D2E/DX2                !
 ! R5    R(4,5)                  1.0889         estimate D2E/DX2                !
 ! R6    R(4,6)                  1.3553         estimate D2E/DX2                !
 ! R7    R(6,7)                  1.4599         estimate D2E/DX2                !
 ! R8    R(6,9)                  1.0889         estimate D2E/DX2                !
 ! R9    R(7,8)                  1.0917         estimate D2E/DX2                !
 ! R10   R(7,10)                 1.0929         estimate D2E/DX2                !
 ! R11   R(7,14)                 1.9283         estimate D2E/DX2                !
 ! R12   R(11,12)                1.0922         estimate D2E/DX2                !
 ! R13   R(11,13)                1.0907         estimate D2E/DX2                !
 ! R14   R(11,14)                1.4961         estimate D2E/DX2                !
 ! R15   R(14,15)                1.0907         estimate D2E/DX2                !
 ! R16   R(14,16)                1.0922         estimate D2E/DX2                !
 ! A1    A(2,1,3)              110.3409         estimate D2E/DX2                !
 ! A2    A(2,1,4)              115.1153         estimate D2E/DX2                !
 ! A3    A(2,1,11)              98.8397         estimate D2E/DX2                !
 ! A4    A(3,1,4)              115.578          estimate D2E/DX2                !
 ! A5    A(3,1,11)             108.3635         estimate D2E/DX2                !
 ! A6    A(4,1,11)             106.9857         estimate D2E/DX2                !
 ! A7    A(1,4,5)              119.257          estimate D2E/DX2                !
 ! A8    A(1,4,6)              119.2758         estimate D2E/DX2                !
 ! A9    A(5,4,6)              120.1771         estimate D2E/DX2                !
 ! A10   A(4,6,7)              119.2802         estimate D2E/DX2                !
 ! A11   A(4,6,9)              120.1754         estimate D2E/DX2                !
 ! A12   A(7,6,9)              119.2602         estimate D2E/DX2                !
 ! A13   A(6,7,8)              115.5777         estimate D2E/DX2                !
 ! A14   A(6,7,10)             115.1065         estimate D2E/DX2                !
 ! A15   A(6,7,14)             107.022          estimate D2E/DX2                !
 ! A16   A(8,7,10)             110.3417         estimate D2E/DX2                !
 ! A17   A(8,7,14)             108.3544         estimate D2E/DX2                !
 ! A18   A(10,7,14)             98.8194         estimate D2E/DX2                !
 ! A19   A(1,11,12)            102.4291         estimate D2E/DX2                !
 ! A20   A(1,11,13)            102.9345         estimate D2E/DX2                !
 ! A21   A(1,11,14)            109.4961         estimate D2E/DX2                !
 ! A22   A(12,11,13)           110.8071         estimate D2E/DX2                !
 ! A23   A(12,11,14)           114.7573         estimate D2E/DX2                !
 ! A24   A(13,11,14)           114.9542         estimate D2E/DX2                !
 ! A25   A(7,14,11)            109.5012         estimate D2E/DX2                !
 ! A26   A(7,14,15)            102.9136         estimate D2E/DX2                !
 ! A27   A(7,14,16)            102.4358         estimate D2E/DX2                !
 ! A28   A(11,14,15)           114.9655         estimate D2E/DX2                !
 ! A29   A(11,14,16)           114.7511         estimate D2E/DX2                !
 ! A30   A(15,14,16)           110.809          estimate D2E/DX2                !
 ! D1    D(2,1,4,5)            139.3921         estimate D2E/DX2                !
 ! D2    D(2,1,4,6)            -53.5509         estimate D2E/DX2                !
 ! D3    D(3,1,4,5)              8.8518         estimate D2E/DX2                !
 ! D4    D(3,1,4,6)            175.9088         estimate D2E/DX2                !
 ! D5    D(11,1,4,5)          -111.906          estimate D2E/DX2                !
 ! D6    D(11,1,4,6)            55.1509         estimate D2E/DX2                !
 ! D7    D(2,1,11,12)          -51.9621         estimate D2E/DX2                !
 ! D8    D(2,1,11,13)         -167.0392         estimate D2E/DX2                !
 ! D9    D(2,1,11,14)           70.2421         estimate D2E/DX2                !
 ! D10   D(3,1,11,12)           63.0166         estimate D2E/DX2                !
 ! D11   D(3,1,11,13)          -52.0604         estimate D2E/DX2                !
 ! D12   D(3,1,11,14)         -174.7792         estimate D2E/DX2                !
 ! D13   D(4,1,11,12)         -171.7401         estimate D2E/DX2                !
 ! D14   D(4,1,11,13)           73.1829         estimate D2E/DX2                !
 ! D15   D(4,1,11,14)          -49.5359         estimate D2E/DX2                !
 ! D16   D(1,4,6,7)              0.0348         estimate D2E/DX2                !
 ! D17   D(1,4,6,9)           -166.9301         estimate D2E/DX2                !
 ! D18   D(5,4,6,7)            166.9705         estimate D2E/DX2                !
 ! D19   D(5,4,6,9)              0.0056         estimate D2E/DX2                !
 ! D20   D(4,6,7,8)           -175.8958         estimate D2E/DX2                !
 ! D21   D(4,6,7,10)            53.572          estimate D2E/DX2                !
 ! D22   D(4,6,7,14)           -55.1228         estimate D2E/DX2                !
 ! D23   D(9,6,7,8)             -8.8105         estimate D2E/DX2                !
 ! D24   D(9,6,7,10)          -139.3427         estimate D2E/DX2                !
 ! D25   D(9,6,7,14)           111.9624         estimate D2E/DX2                !
 ! D26   D(6,7,14,11)           49.26           estimate D2E/DX2                !
 ! D27   D(6,7,14,15)          -73.4628         estimate D2E/DX2                !
 ! D28   D(6,7,14,16)          171.4631         estimate D2E/DX2                !
 ! D29   D(8,7,14,11)          174.5201         estimate D2E/DX2                !
 ! D30   D(8,7,14,15)           51.7973         estimate D2E/DX2                !
 ! D31   D(8,7,14,16)          -63.2768         estimate D2E/DX2                !
 ! D32   D(10,7,14,11)         -70.5121         estimate D2E/DX2                !
 ! D33   D(10,7,14,15)         166.7651         estimate D2E/DX2                !
 ! D34   D(10,7,14,16)          51.691          estimate D2E/DX2                !
 ! D35   D(1,11,14,7)            0.1666         estimate D2E/DX2                !
 ! D36   D(1,11,14,15)         115.4058         estimate D2E/DX2                !
 ! D37   D(1,11,14,16)        -114.3419         estimate D2E/DX2                !
 ! D38   D(12,11,14,7)         114.6672         estimate D2E/DX2                !
 ! D39   D(12,11,14,15)       -130.0936         estimate D2E/DX2                !
 ! D40   D(12,11,14,16)          0.1586         estimate D2E/DX2                !
 ! D41   D(13,11,14,7)        -115.0884         estimate D2E/DX2                !
 ! D42   D(13,11,14,15)          0.1508         estimate D2E/DX2                !
 ! D43   D(13,11,14,16)        130.403          estimate D2E/DX2                !
 --------------------------------------------------------------------------------
 Trust Radius=3.00D-01 FncErr=1.00D-07 GrdErr=1.00D-06
 Number of steps in this run=     99 maximum allowed number of steps=    100.
 GradGradGradGradGradGradGradGradGradGradGradGradGradGradGradGradGradGrad

 Leave Link  103 at Sun May 12 21:01:12 2019, MaxMem=  2097152000 cpu:         0.0
 (Enter /mnt/e/g09/l202.exe)
                          Input orientation:                          
 ---------------------------------------------------------------------
 Center     Atomic      Atomic             Coordinates (Angstroms)
 Number     Number       Type             X           Y           Z
 ---------------------------------------------------------------------
      1          6           0        0.264240   -1.391259    0.453055
      2          1           0        0.177451   -1.104741    1.504159
      3          1           0        0.278859   -2.478543    0.356070
      4          6           0        1.290324   -0.677338   -0.301113
      5          1           0        1.903640   -1.224820   -1.015070
      6          6           0        1.289770    0.677983   -0.301848
      7          6           0        0.263600    1.391984    0.452141
      8          1           0        0.277203    2.479149    0.353742
      9          1           0        1.902581    1.225163   -1.016472
     10          1           0        0.178035    1.106735    1.503682
     11          6           0       -1.442861   -0.748715   -0.171084
     12          1           0       -2.138992   -1.207787    0.534233
     13          1           0       -1.530952   -1.207569   -1.156613
     14          6           0       -1.444385    0.747383   -0.168981
     15          1           0       -1.535996    1.209016   -1.152885
     16          1           0       -2.139523    1.202941    0.539581
 ---------------------------------------------------------------------
                    Distance matrix (angstroms):
                    1          2          3          4          5
     1  C    0.000000
     2  H    1.092906   0.000000
     3  H    1.091699   1.793244   0.000000
     4  C    1.459898   2.163369   2.167785   0.000000
     5  H    2.206972   3.056250   2.468149   1.088865   0.000000
     6  C    2.429682   2.770744   3.379120   1.355321   2.122777
     7  C    2.783243   2.710682   3.871749   2.429742   3.419079
     8  H    3.871704   3.765326   4.957693   3.379151   4.270636
     9  H    3.418967   3.841628   4.270572   2.122759   2.449984
    10  H    2.711314   2.211476   3.765820   2.770810   3.841611
    11  C    1.927850   2.357669   2.496901   2.737207   3.483971
    12  H    2.411592   2.513421   2.737255   3.569228   4.329377
    13  H    2.418158   3.163688   2.679366   2.995434   3.437551
    14  C    2.807155   2.976594   3.694841   3.086409   3.976773
    15  H    3.547016   3.917813   4.378211   3.503132   4.215880
    16  H    3.537716   3.409425   4.408579   4.000758   4.965695
                    6          7          8          9         10
     6  C    0.000000
     7  C    1.459905   0.000000
     8  H    2.167784   1.091694   0.000000
     9  H    1.088867   2.207014   2.468161   0.000000
    10  H    2.163266   1.092898   1.793242   3.056020   0.000000
    11  C    3.085424   2.807670   3.695019   3.975281   2.979067
    12  H    4.001446   3.540903   4.411811   4.965707   3.415473
    13  H    3.498914   3.544881   4.375213   4.210341   3.918394
    14  C    2.738261   1.928345   2.497222   3.485498   2.357792
    15  H    2.998535   2.418291   2.677845   3.441320   3.163181
    16  H    3.569823   2.412132   2.739308   4.331328   2.511936
                   11         12         13         14         15
    11  C    0.000000
    12  H    1.092162   0.000000
    13  H    1.090676   1.796851   0.000000
    14  C    1.496100   2.190817   2.191974   0.000000
    15  H    2.192104   3.008473   2.416593   1.090672   0.000000
    16  H    2.190740   2.410734   3.009650   1.092158   1.796865
                   16
    16  H    0.000000
 Symmetry turned off by external request.
 Stoichiometry    C6H10
 Framework group  C1[X(C6H10)]
 Deg. of freedom    42
 Full point group                 C1      NOp   1
 Rotational constants (GHZ):      4.4896952      3.8558738      2.4314030
 Leave Link  202 at Sun May 12 21:01:12 2019, MaxMem=  2097152000 cpu:         0.0
 (Enter /mnt/e/g09/l301.exe)
 Standard basis: 6-31G(d) (6D, 7F)
 Ernie: Thresh=  0.10000D-02 Tol=  0.10000D-05 Strict=F.
   110 basis functions,   208 primitive gaussians,   110 cartesian basis functions
    23 alpha electrons       23 beta electrons
       nuclear repulsion energy       228.0204678270 Hartrees.
 IExCor=  402 DFT=T Ex+Corr=B3LYP ExCW=0 ScaHFX=  0.200000
 ScaDFX=  0.800000  0.720000  1.000000  0.810000 ScalE2=  1.000000  1.000000
 IRadAn=      0 IRanWt=     -1 IRanGd=            0 ICorTp=0 IEmpDi=131
 NAtoms=   16 NActive=   16 NUniq=   16 SFac= 1.00D+00 NAtFMM=   60 NAOKFM=F Big=F
 Integral buffers will be    131072 words long.
 Raffenetti 2 integral format.
 Two-electron integral symmetry is turned off.
 R6Disp:  Grimme-D3 Dispersion energy=       -0.0107109743 Hartrees.
 Nuclear repulsion after empirical dispersion term =      228.0097568527 Hartrees.
 Leave Link  301 at Sun May 12 21:01:12 2019, MaxMem=  2097152000 cpu:         0.1
 (Enter /mnt/e/g09/l302.exe)
 NPDir=0 NMtPBC=     1 NCelOv=     1 NCel=       1 NClECP=     1 NCelD=      1
         NCelK=      1 NCelE2=     1 NClLst=     1 CellRange=     0.0.
 One-electron integrals computed using PRISM.
 NBasis=   110 RedAO= T EigKep=  2.24D-03  NBF=   110
 NBsUse=   110 1.00D-06 EigRej= -1.00D+00 NBFU=   110
 Precomputing XC quadrature grid using
 IXCGrd= 4 IRadAn=           0 IRanWt=          -1 IRanGd=           0 AccXCQ= 0.00D+00.
 Generated NRdTot=       0 NPtTot=           0 NUsed=           0 NTot=          32
 NSgBfM=   110   110   110   110   110 MxSgAt=    16 MxSgA2=    16.
 Leave Link  302 at Sun May 12 21:01:12 2019, MaxMem=  2097152000 cpu:         0.6
 (Enter /mnt/e/g09/l303.exe)
 DipDrv:  MaxL=1.
 Leave Link  303 at Sun May 12 21:01:12 2019, MaxMem=  2097152000 cpu:         0.0
 (Enter /mnt/e/g09/l401.exe)
 ExpMin= 1.61D-01 ExpMax= 3.05D+03 ExpMxC= 4.57D+02 IAcc=1 IRadAn=         1 AccDes= 0.00D+00
 Harris functional with IExCor=  402 and IRadAn=       1 diagonalized for initial guess.
 HarFok:  IExCor=  402 AccDes= 0.00D+00 IRadAn=         1 IDoV= 1 UseB2=F ITyADJ=14
 ICtDFT=  3500011 ScaDFX=  1.000000  1.000000  1.000000  1.000000
 FoFCou: FMM=F IPFlag=           0 FMFlag=      100000 FMFlg1=           0
         NFxFlg=           0 DoJE=T BraDBF=F KetDBF=T FulRan=T
         wScrn=  0.000000 ICntrl=     500 IOpCl=  0 I1Cent=   200000004 NGrid=           0
         NMat0=    1 NMatS0=      1 NMatT0=    0 NMatD0=    1 NMtDS0=    0 NMtDT0=    0
 Symmetry not used in FoFCou.
 Harris En= -234.637563790809    
 JPrj=0 DoOrth=F DoCkMO=F.
 Leave Link  401 at Sun May 12 21:01:12 2019, MaxMem=  2097152000 cpu:         1.5
 (Enter /mnt/e/g09/l502.exe)
 Closed shell SCF:
 Using DIIS extrapolation, IDIIS=  1040.
 Two-electron integral symmetry not used.
 Keep R1 ints in memory in canonical form, NReq=19626885.
 IVT=       56422 IEndB=       56422 NGot=  2097152000 MDV=  2078457014
 LenX=  2078457014 LenY=  2078444473
 Requested convergence on RMS density matrix=1.00D-08 within 128 cycles.
 Requested convergence on MAX density matrix=1.00D-06.
 Requested convergence on             energy=1.00D-06.
 No special actions if energy rises.
 FoFCou: FMM=F IPFlag=           0 FMFlag=           0 FMFlg1=           0
         NFxFlg=           0 DoJE=F BraDBF=F KetDBF=F FulRan=T
         wScrn=  0.000000 ICntrl=     600 IOpCl=  0 I1Cent=           0 NGrid=           0
         NMat0=    1 NMatS0=   6105 NMatT0=    0 NMatD0=    1 NMtDS0=    0 NMtDT0=    0
 Symmetry not used in FoFCou.
 Integral accuracy reduced to 1.0D-05 until final iterations.

 Cycle   1  Pass 0  IDiag  1:
 E= -234.407475000149    
 DIIS: error= 3.55D-02 at cycle   1 NSaved=   1.
 NSaved= 1 IEnMin= 1 EnMin= -234.407475000149     IErMin= 1 ErrMin= 3.55D-02
 ErrMax= 3.55D-02  0.00D+00 EMaxC= 1.00D-01 BMatC= 1.58D-01 BMatP= 1.58D-01
 IDIUse=3 WtCom= 6.45D-01 WtEn= 3.55D-01
 Coeff-Com:  0.100D+01
 Coeff-En:   0.100D+01
 Coeff:      0.100D+01
 Gap=     0.238 Goal=   None    Shift=    0.000
 GapD=    0.238 DampG=1.000 DampE=0.500 DampFc=0.5000 IDamp=-1.
 Damping current iteration by 5.00D-01
 RMSDP=8.68D-03 MaxDP=1.32D-01              OVMax= 1.52D-01

 Cycle   2  Pass 0  IDiag  1:
 E= -234.491298255177     Delta-E=       -0.083823255028 Rises=F Damp=T
 DIIS: error= 7.22D-03 at cycle   2 NSaved=   2.
 NSaved= 2 IEnMin= 2 EnMin= -234.491298255177     IErMin= 2 ErrMin= 7.22D-03
 ErrMax= 7.22D-03  0.00D+00 EMaxC= 1.00D-01 BMatC= 8.39D-03 BMatP= 1.58D-01
 IDIUse=3 WtCom= 9.28D-01 WtEn= 7.22D-02
 Coeff-Com:  0.438D-01 0.956D+00
 Coeff-En:   0.641D-01 0.936D+00
 Coeff:      0.453D-01 0.955D+00
 Gap=     0.246 Goal=   None    Shift=    0.000
 RMSDP=1.72D-03 MaxDP=2.24D-02 DE=-8.38D-02 OVMax= 8.69D-02

 Cycle   3  Pass 0  IDiag  1:
 E= -234.588864357384     Delta-E=       -0.097566102207 Rises=F Damp=F
 DIIS: error= 2.85D-03 at cycle   3 NSaved=   3.
 NSaved= 3 IEnMin= 3 EnMin= -234.588864357384     IErMin= 3 ErrMin= 2.85D-03
 ErrMax= 2.85D-03  0.00D+00 EMaxC= 1.00D-01 BMatC= 1.31D-03 BMatP= 8.39D-03
 IDIUse=3 WtCom= 9.71D-01 WtEn= 2.85D-02
 Coeff-Com: -0.228D-01 0.244D+00 0.778D+00
 Coeff-En:   0.000D+00 0.000D+00 0.100D+01
 Coeff:     -0.221D-01 0.237D+00 0.785D+00
 Gap=     0.239 Goal=   None    Shift=    0.000
 RMSDP=5.25D-04 MaxDP=5.08D-03 DE=-9.76D-02 OVMax= 8.18D-03

 Cycle   4  Pass 0  IDiag  1:
 E= -234.590053729419     Delta-E=       -0.001189372035 Rises=F Damp=F
 DIIS: error= 7.41D-04 at cycle   4 NSaved=   4.
 NSaved= 4 IEnMin= 4 EnMin= -234.590053729419     IErMin= 4 ErrMin= 7.41D-04
 ErrMax= 7.41D-04  0.00D+00 EMaxC= 1.00D-01 BMatC= 8.25D-05 BMatP= 1.31D-03
 IDIUse=3 WtCom= 9.93D-01 WtEn= 7.41D-03
 Coeff-Com: -0.644D-02 0.233D-01 0.226D+00 0.757D+00
 Coeff-En:   0.000D+00 0.000D+00 0.000D+00 0.100D+01
 Coeff:     -0.639D-02 0.231D-01 0.224D+00 0.759D+00
 Gap=     0.239 Goal=   None    Shift=    0.000
 RMSDP=1.31D-04 MaxDP=1.48D-03 DE=-1.19D-03 OVMax= 3.05D-03

 Cycle   5  Pass 0  IDiag  1:
 E= -234.590121139867     Delta-E=       -0.000067410448 Rises=F Damp=F
 DIIS: error= 2.30D-04 at cycle   5 NSaved=   5.
 NSaved= 5 IEnMin= 5 EnMin= -234.590121139867     IErMin= 5 ErrMin= 2.30D-04
 ErrMax= 2.30D-04  0.00D+00 EMaxC= 1.00D-01 BMatC= 1.46D-05 BMatP= 8.25D-05
 IDIUse=3 WtCom= 9.98D-01 WtEn= 2.30D-03
 Coeff-Com: -0.282D-02 0.653D-02 0.102D+00 0.419D+00 0.475D+00
 Coeff-En:   0.000D+00 0.000D+00 0.000D+00 0.758D-02 0.992D+00
 Coeff:     -0.281D-02 0.651D-02 0.102D+00 0.418D+00 0.476D+00
 Gap=     0.239 Goal=   None    Shift=    0.000
 RMSDP=3.56D-05 MaxDP=6.26D-04 DE=-6.74D-05 OVMax= 1.09D-03

 Cycle   6  Pass 0  IDiag  1:
 E= -234.590135735784     Delta-E=       -0.000014595917 Rises=F Damp=F
 DIIS: error= 3.70D-05 at cycle   6 NSaved=   6.
 NSaved= 6 IEnMin= 6 EnMin= -234.590135735784     IErMin= 6 ErrMin= 3.70D-05
 ErrMax= 3.70D-05  0.00D+00 EMaxC= 1.00D-01 BMatC= 1.91D-07 BMatP= 1.46D-05
 IDIUse=1 WtCom= 1.00D+00 WtEn= 0.00D+00
 Coeff-Com: -0.577D-03 0.745D-03 0.230D-01 0.107D+00 0.162D+00 0.708D+00
 Coeff:     -0.577D-03 0.745D-03 0.230D-01 0.107D+00 0.162D+00 0.708D+00
 Gap=     0.239 Goal=   None    Shift=    0.000
 RMSDP=6.29D-06 MaxDP=9.00D-05 DE=-1.46D-05 OVMax= 2.19D-04

 Initial convergence to 1.0D-05 achieved.  Increase integral accuracy.
 Cycle   7  Pass 1  IDiag  1:
 E= -234.590173969607     Delta-E=       -0.000038233823 Rises=F Damp=F
 DIIS: error= 2.82D-05 at cycle   1 NSaved=   1.
 NSaved= 1 IEnMin= 1 EnMin= -234.590173969607     IErMin= 1 ErrMin= 2.82D-05
 ErrMax= 2.82D-05  0.00D+00 EMaxC= 1.00D-01 BMatC= 7.98D-08 BMatP= 7.98D-08
 IDIUse=1 WtCom= 1.00D+00 WtEn= 0.00D+00
 Coeff-Com:  0.100D+01
 Coeff:      0.100D+01
 Gap=     0.239 Goal=   None    Shift=    0.000
 RMSDP=6.29D-06 MaxDP=9.00D-05 DE=-3.82D-05 OVMax= 3.30D-04

 Cycle   8  Pass 1  IDiag  1:
 E= -234.590173813423     Delta-E=        0.000000156184 Rises=F Damp=F
 DIIS: error= 4.44D-05 at cycle   2 NSaved=   2.
 NSaved= 2 IEnMin= 1 EnMin= -234.590173969607     IErMin= 1 ErrMin= 2.82D-05
 ErrMax= 4.44D-05  0.00D+00 EMaxC= 1.00D-01 BMatC= 2.20D-07 BMatP= 7.98D-08
 IDIUse=1 WtCom= 1.00D+00 WtEn= 0.00D+00
 Coeff-Com:  0.630D+00 0.370D+00
 Coeff:      0.630D+00 0.370D+00
 Gap=     0.239 Goal=   None    Shift=    0.000
 RMSDP=4.45D-06 MaxDP=8.70D-05 DE= 1.56D-07 OVMax= 1.99D-04

 Cycle   9  Pass 1  IDiag  1:
 E= -234.590174069894     Delta-E=       -0.000000256472 Rises=F Damp=F
 DIIS: error= 2.14D-06 at cycle   3 NSaved=   3.
 NSaved= 3 IEnMin= 3 EnMin= -234.590174069894     IErMin= 3 ErrMin= 2.14D-06
 ErrMax= 2.14D-06  0.00D+00 EMaxC= 1.00D-01 BMatC= 8.59D-10 BMatP= 7.98D-08
 IDIUse=1 WtCom= 1.00D+00 WtEn= 0.00D+00
 Coeff-Com:  0.299D-01 0.613D-01 0.909D+00
 Coeff:      0.299D-01 0.613D-01 0.909D+00
 Gap=     0.239 Goal=   None    Shift=    0.000
 RMSDP=3.81D-07 MaxDP=6.60D-06 DE=-2.56D-07 OVMax= 1.32D-05

 Cycle  10  Pass 1  IDiag  1:
 E= -234.590174070478     Delta-E=       -0.000000000584 Rises=F Damp=F
 DIIS: error= 1.26D-06 at cycle   4 NSaved=   4.
 NSaved= 4 IEnMin= 4 EnMin= -234.590174070478     IErMin= 4 ErrMin= 1.26D-06
 ErrMax= 1.26D-06  0.00D+00 EMaxC= 1.00D-01 BMatC= 3.66D-10 BMatP= 8.59D-10
 IDIUse=1 WtCom= 1.00D+00 WtEn= 0.00D+00
 Coeff-Com: -0.145D-01 0.162D-01 0.501D+00 0.498D+00
 Coeff:     -0.145D-01 0.162D-01 0.501D+00 0.498D+00
 Gap=     0.239 Goal=   None    Shift=    0.000
 RMSDP=1.81D-07 MaxDP=2.98D-06 DE=-5.84D-10 OVMax= 6.16D-06

 Cycle  11  Pass 1  IDiag  1:
 E= -234.590174070844     Delta-E=       -0.000000000366 Rises=F Damp=F
 DIIS: error= 1.63D-07 at cycle   5 NSaved=   5.
 NSaved= 5 IEnMin= 5 EnMin= -234.590174070844     IErMin= 5 ErrMin= 1.63D-07
 ErrMax= 1.63D-07  0.00D+00 EMaxC= 1.00D-01 BMatC= 4.04D-12 BMatP= 3.66D-10
 IDIUse=1 WtCom= 1.00D+00 WtEn= 0.00D+00
 Coeff-Com: -0.561D-02 0.271D-02 0.116D+00 0.162D+00 0.724D+00
 Coeff:     -0.561D-02 0.271D-02 0.116D+00 0.162D+00 0.724D+00
 Gap=     0.239 Goal=   None    Shift=    0.000
 RMSDP=2.35D-08 MaxDP=2.45D-07 DE=-3.66D-10 OVMax= 7.55D-07

 Cycle  12  Pass 1  IDiag  1:
 E= -234.590174070849     Delta-E=       -0.000000000006 Rises=F Damp=F
 DIIS: error= 2.79D-08 at cycle   6 NSaved=   6.
 NSaved= 6 IEnMin= 6 EnMin= -234.590174070849     IErMin= 6 ErrMin= 2.79D-08
 ErrMax= 2.79D-08  0.00D+00 EMaxC= 1.00D-01 BMatC= 1.27D-13 BMatP= 4.04D-12
 IDIUse=1 WtCom= 1.00D+00 WtEn= 0.00D+00
 Coeff-Com: -0.574D-03-0.101D-03 0.338D-02 0.176D-01 0.172D+00 0.807D+00
 Coeff:     -0.574D-03-0.101D-03 0.338D-02 0.176D-01 0.172D+00 0.807D+00
 Gap=     0.239 Goal=   None    Shift=    0.000
 RMSDP=6.47D-09 MaxDP=8.85D-08 DE=-5.68D-12 OVMax= 3.28D-07

 SCF Done:  E(RB3LYP) =  -234.590174071     A.U. after   12 cycles
            NFock= 12  Conv=0.65D-08     -V/T= 2.0118
 KE= 2.318488061900D+02 PE=-9.979637693501D+02 EE= 3.035150322366D+02
 Leave Link  502 at Sun May 12 21:01:14 2019, MaxMem=  2097152000 cpu:        14.0
 (Enter /mnt/e/g09/l601.exe)
 Copying SCF densities to generalized density rwf, IOpCl= 0 IROHF=0.

 **********************************************************************

            Population analysis using the SCF density.

 **********************************************************************

 Alpha  occ. eigenvalues --  -10.19258 -10.19231 -10.19021 -10.19019 -10.17266
 Alpha  occ. eigenvalues --  -10.17192  -0.80171  -0.72930  -0.70313  -0.61822
 Alpha  occ. eigenvalues --   -0.58015  -0.50661  -0.48088  -0.45345  -0.40088
 Alpha  occ. eigenvalues --   -0.38992  -0.38523  -0.36107  -0.36025  -0.33572
 Alpha  occ. eigenvalues --   -0.32609  -0.25739  -0.22182
 Alpha virt. eigenvalues --    0.01728   0.04840   0.09914   0.11622   0.13995
 Alpha virt. eigenvalues --    0.14373   0.15171   0.15973   0.17812   0.20018
 Alpha virt. eigenvalues --    0.20962   0.23560   0.25267   0.25635   0.27652
 Alpha virt. eigenvalues --    0.37202   0.39376   0.49517   0.49943   0.52247
 Alpha virt. eigenvalues --    0.56591   0.58523   0.58872   0.61188   0.61658
 Alpha virt. eigenvalues --    0.63904   0.66166   0.68356   0.70405   0.74002
 Alpha virt. eigenvalues --    0.76327   0.81108   0.82140   0.85537   0.86071
 Alpha virt. eigenvalues --    0.86595   0.87535   0.88911   0.93456   0.94532
 Alpha virt. eigenvalues --    0.95843   0.96650   0.97963   1.01162   1.11264
 Alpha virt. eigenvalues --    1.12802   1.18165   1.28684   1.32619   1.39004
 Alpha virt. eigenvalues --    1.43880   1.48165   1.56910   1.62420   1.63960
 Alpha virt. eigenvalues --    1.66296   1.81798   1.86389   1.88690   1.89747
 Alpha virt. eigenvalues --    1.92466   1.97205   2.01897   2.05225   2.09819
 Alpha virt. eigenvalues --    2.12702   2.13130   2.20191   2.25429   2.26897
 Alpha virt. eigenvalues --    2.30596   2.31822   2.39202   2.44187   2.53044
 Alpha virt. eigenvalues --    2.57264   2.58107   2.60604   2.65940   2.84578
 Alpha virt. eigenvalues --    2.97869   4.08492   4.22200   4.25438   4.30737
 Alpha virt. eigenvalues --    4.46608   4.56404
          Condensed to atoms (all electrons):
               1          2          3          4          5          6
     1  C    5.071311   0.367542   0.362328   0.438470  -0.056847  -0.048163
     2  H    0.367542   0.581488  -0.039232  -0.032235   0.004529  -0.011840
     3  H    0.362328  -0.039232   0.586307  -0.029420  -0.006132   0.005845
     4  C    0.438470  -0.032235  -0.029420   4.835659   0.370037   0.656193
     5  H   -0.056847   0.004529  -0.006132   0.370037   0.610725  -0.044165
     6  C   -0.048163  -0.011840   0.005845   0.656193  -0.044165   4.835632
     7  C   -0.028538   0.004182   0.000559  -0.048112   0.006501   0.438487
     8  H    0.000559  -0.000064  -0.000016   0.005843  -0.000153  -0.029417
     9  H    0.006502  -0.000064  -0.000152  -0.044174  -0.008460   0.370039
    10  H    0.004173   0.006234  -0.000065  -0.011831  -0.000063  -0.032262
    11  C    0.272314  -0.027699  -0.016842  -0.023006   0.002097  -0.025934
    12  H   -0.019462  -0.002160   0.000636   0.001465  -0.000077   0.000804
    13  H   -0.020794   0.002281  -0.001190  -0.002588   0.000322   0.001262
    14  C   -0.025599  -0.006235   0.001936  -0.025941  -0.000183  -0.022940
    15  H    0.001620   0.000006  -0.000064   0.001253   0.000013  -0.002597
    16  H    0.001588   0.000638  -0.000060   0.000803   0.000009   0.001462
               7          8          9         10         11         12
     1  C   -0.028538   0.000559   0.006502   0.004173   0.272314  -0.019462
     2  H    0.004182  -0.000064  -0.000064   0.006234  -0.027699  -0.002160
     3  H    0.000559  -0.000016  -0.000152  -0.000065  -0.016842   0.000636
     4  C   -0.048112   0.005843  -0.044174  -0.011831  -0.023006   0.001465
     5  H    0.006501  -0.000153  -0.008460  -0.000063   0.002097  -0.000077
     6  C    0.438487  -0.029417   0.370039  -0.032262  -0.025934   0.000804
     7  C    5.071368   0.362334  -0.056843   0.367580  -0.025606   0.001607
     8  H    0.362334   0.586290  -0.006131  -0.039230   0.001933  -0.000060
     9  H   -0.056843  -0.006131   0.610721   0.004527  -0.000184   0.000009
    10  H    0.367580  -0.039230   0.004527   0.581419  -0.006201   0.000625
    11  C   -0.025606   0.001933  -0.000184  -0.006201   5.051106   0.366625
    12  H    0.001607  -0.000060   0.000009   0.000625   0.366625   0.585894
    13  H    0.001604  -0.000063   0.000013   0.000006   0.375811  -0.039385
    14  C    0.272145  -0.016836   0.002102  -0.027679   0.407441  -0.035318
    15  H   -0.020771  -0.001197   0.000317   0.002274  -0.034310   0.004374
    16  H   -0.019420   0.000644  -0.000077  -0.002172  -0.035341  -0.007978
              13         14         15         16
     1  C   -0.020794  -0.025599   0.001620   0.001588
     2  H    0.002281  -0.006235   0.000006   0.000638
     3  H   -0.001190   0.001936  -0.000064  -0.000060
     4  C   -0.002588  -0.025941   0.001253   0.000803
     5  H    0.000322  -0.000183   0.000013   0.000009
     6  C    0.001262  -0.022940  -0.002597   0.001462
     7  C    0.001604   0.272145  -0.020771  -0.019420
     8  H   -0.000063  -0.016836  -0.001197   0.000644
     9  H    0.000013   0.002102   0.000317  -0.000077
    10  H    0.000006  -0.027679   0.002274  -0.002172
    11  C    0.375811   0.407441  -0.034310  -0.035341
    12  H   -0.039385  -0.035318   0.004374  -0.007978
    13  H    0.571848  -0.034323  -0.008422   0.004386
    14  C   -0.034323   5.051211   0.375836   0.366648
    15  H   -0.008422   0.375836   0.571803  -0.039397
    16  H    0.004386   0.366648  -0.039397   0.585917
 Mulliken charges:
               1
     1  C   -0.327005
     2  H    0.152628
     3  H    0.135561
     4  C   -0.092418
     5  H    0.121848
     6  C   -0.092406
     7  C   -0.327075
     8  H    0.135566
     9  H    0.121857
    10  H    0.152666
    11  C   -0.282205
    12  H    0.142400
    13  H    0.149232
    14  C   -0.282264
    15  H    0.149263
    16  H    0.142351
 Sum of Mulliken charges =   0.00000
 Mulliken charges with hydrogens summed into heavy atoms:
               1
     1  C   -0.038815
     4  C    0.029431
     6  C    0.029451
     7  C   -0.038844
    11  C    0.009427
    14  C    0.009350
 Electronic spatial extent (au):  <R**2>=            584.4326
 Charge=              0.0000 electrons
 Dipole moment (field-independent basis, Debye):
    X=             -0.5285    Y=             -0.0006    Z=             -0.0514  Tot=              0.5310
 Quadrupole moment (field-independent basis, Debye-Ang):
   XX=            -39.0691   YY=            -36.6013   ZZ=            -37.3031
   XY=             -0.0013   XZ=             -1.4933   YZ=             -0.0017
 Traceless Quadrupole moment (field-independent basis, Debye-Ang):
   XX=             -1.4113   YY=              1.0565   ZZ=              0.3548
   XY=             -0.0013   XZ=             -1.4933   YZ=             -0.0017
 Octapole moment (field-independent basis, Debye-Ang**2):
  XXX=              0.3296  YYY=             -0.0005  ZZZ=             -0.0318  XYY=              1.9607
  XXY=             -0.0062  XXZ=             -2.6496  XZZ=              0.3047  YZZ=              0.0036
  YYZ=             -1.4582  XYZ=              0.0022
 Hexadecapole moment (field-independent basis, Debye-Ang**3):
 XXXX=           -380.9026 YYYY=           -315.2850 ZZZZ=           -100.6648 XXXY=             -0.0060
 XXXZ=             -6.5797 YYYX=             -0.0083 YYYZ=             -0.0284 ZZZX=              5.0888
 ZZZY=              0.0020 XXYY=           -114.7986 XXZZ=            -76.0122 YYZZ=            -71.0952
 XXYZ=             -0.0117 YYXZ=             -1.0873 ZZXY=             -0.0046
 N-N= 2.280097568527D+02 E-N=-9.979637724752D+02  KE= 2.318488061900D+02
 No NMR shielding tensors so no spin-rotation constants.
 Leave Link  601 at Sun May 12 21:01:14 2019, MaxMem=  2097152000 cpu:         0.6
 (Enter /mnt/e/g09/l701.exe)
 Compute integral first derivatives.
 ... and contract with generalized density number  0.
 R6Disp: Adding Grimme-D3 dispersion energy 1st derivatives to the gradient.
 Leave Link  701 at Sun May 12 21:01:15 2019, MaxMem=  2097152000 cpu:         0.5
 (Enter /mnt/e/g09/l702.exe)
 L702 exits ... SP integral derivatives will be done elsewhere.
 Leave Link  702 at Sun May 12 21:01:15 2019, MaxMem=  2097152000 cpu:         0.1
 (Enter /mnt/e/g09/l703.exe)
 Compute integral first derivatives, UseDBF=F ICtDFT=           0.
 Integral derivatives from FoFJK, PRISM(SPDF).
 Calling FoFJK, ICntrl=      2127 FMM=F ISym2X=0 I1Cent= 0 IOpClX= 0 NMat=1 NMatS=1 NMatT=0.
 FoFJK:  IHMeth= 1 ICntrl=    2127 DoSepK=F KAlg= 0 I1Cent=   0 FoldK=F
 IRaf=         0 NMat=   1 IRICut=       1 DoRegI=T DoRafI=F ISym2E= 0.
 FoFCou: FMM=F IPFlag=           0 FMFlag=      100000 FMFlg1=         800
         NFxFlg=           0 DoJE=F BraDBF=F KetDBF=F FulRan=T
         wScrn=  0.000000 ICntrl=    2127 IOpCl=  0 I1Cent=           0 NGrid=           0
         NMat0=    1 NMatS0=      1 NMatT0=    0 NMatD0=    1 NMtDS0=    0 NMtDT0=    0
 Symmetry not used in FoFCou.
 Leave Link  703 at Sun May 12 21:01:15 2019, MaxMem=  2097152000 cpu:         5.4
 (Enter /mnt/e/g09/l716.exe)
 Dipole        =-2.07915093D-01-2.49786114D-04-2.02149156D-02
 -------------------------------------------------------------------
 Center     Atomic                   Forces (Hartrees/Bohr)
 Number     Number              X              Y              Z
 -------------------------------------------------------------------
      1        6          -0.041125939    0.011966690   -0.012321917
      2        1           0.001089896   -0.000988291   -0.000072750
      3        1          -0.002033953    0.000884315   -0.000911065
      4        6          -0.002476604    0.004131419   -0.004064285
      5        1           0.001793185   -0.000418552    0.002165223
      6        6          -0.002475162   -0.004120891   -0.004048127
      7        6          -0.041120185   -0.012013108   -0.012238403
      8        1          -0.002034401   -0.000886820   -0.000904344
      9        1           0.001795448    0.000425902    0.002169661
     10        1           0.001092146    0.000988002   -0.000072898
     11        6           0.042314305   -0.013924993    0.015287394
     12        1           0.000215072    0.000814532   -0.000630329
     13        1           0.000205623    0.000773458    0.000552381
     14        6           0.042336328    0.013956271    0.015177337
     15        1           0.000191169   -0.000791535    0.000541268
     16        1           0.000233070   -0.000796401   -0.000629145
 -------------------------------------------------------------------
 Cartesian Forces:  Max     0.042336328 RMS     0.013324693
 Leave Link  716 at Sun May 12 21:01:15 2019, MaxMem=  2097152000 cpu:         0.1
 (Enter /mnt/e/g09/l103.exe)

 GradGradGradGradGradGradGradGradGradGradGradGradGradGradGradGradGradGrad
 Berny optimization.
 FormGI is forming the generalized inverse of G from B-inverse, IUseBI=4.
 Internal  Forces:  Max     0.047086384 RMS     0.007168537
 Search for a local minimum.
 Step number   1 out of a maximum of   99
 All quantities printed in internal units (Hartrees-Bohrs-Radians)
 RMS Force = .71685D-02 SwitMx=.10000D-02 MixMth= 1
 Mixed Optimization -- RFO/linear search
 Second derivative matrix not updated -- first step.
 ITU=  0
     Eigenvalues ---    0.00519   0.01090   0.01746   0.01794   0.02074
     Eigenvalues ---    0.03056   0.03895   0.04517   0.04784   0.05018
     Eigenvalues ---    0.05371   0.06412   0.06918   0.07202   0.08050
     Eigenvalues ---    0.08052   0.08096   0.08288   0.09141   0.10161
     Eigenvalues ---    0.10525   0.11675   0.11804   0.15481   0.15703
     Eigenvalues ---    0.19550   0.20283   0.21441   0.31476   0.34267
     Eigenvalues ---    0.34479   0.34480   0.34564   0.34564   0.34617
     Eigenvalues ---    0.34618   0.34735   0.34735   0.34944   0.34944
     Eigenvalues ---    0.36440   0.51789
 RFO step:  Lambda=-3.33741837D-02 EMin= 5.19415467D-03
 Linear search not attempted -- first point.
 Maximum step size (   0.300) exceeded in Quadratic search.
    -- Step size scaled by   0.615
 Iteration  1 RMS(Cart)=  0.04227352 RMS(Int)=  0.00170806
 Iteration  2 RMS(Cart)=  0.00230507 RMS(Int)=  0.00019274
 Iteration  3 RMS(Cart)=  0.00000104 RMS(Int)=  0.00019274
 Iteration  4 RMS(Cart)=  0.00000000 RMS(Int)=  0.00019274
 ITry= 1 IFail=0 DXMaxC= 1.34D-01 DCOld= 1.00D+10 DXMaxT= 3.00D-01 DXLimC= 3.00D+00 Rises=F
 Variable       Old X    -DE/DX   Delta X   Delta X   Delta X     New X
                                 (Linear)    (Quad)   (Total)
    R1        2.06529  -0.00042   0.00000  -0.00068  -0.00068   2.06462
    R2        2.06301  -0.00083   0.00000  -0.00134  -0.00134   2.06167
    R3        2.75881   0.00103   0.00000   0.00126   0.00104   2.75985
    R4        3.64311  -0.04709   0.00000  -0.21084  -0.21068   3.43243
    R5        2.05766  -0.00020   0.00000  -0.00032  -0.00032   2.05734
    R6        2.56119  -0.00262   0.00000  -0.00327  -0.00372   2.55746
    R7        2.75882   0.00102   0.00000   0.00124   0.00102   2.75984
    R8        2.05766  -0.00020   0.00000  -0.00032  -0.00032   2.05734
    R9        2.06300  -0.00083   0.00000  -0.00134  -0.00134   2.06166
   R10        2.06528  -0.00041   0.00000  -0.00067  -0.00067   2.06461
   R11        3.64404  -0.04707   0.00000  -0.21090  -0.21074   3.43330
   R12        2.06389  -0.00089   0.00000  -0.00144  -0.00144   2.06245
   R13        2.06108  -0.00084   0.00000  -0.00136  -0.00136   2.05972
   R14        2.82722  -0.00062   0.00000  -0.00034   0.00012   2.82734
   R15        2.06107  -0.00084   0.00000  -0.00135  -0.00135   2.05972
   R16        2.06388  -0.00089   0.00000  -0.00144  -0.00144   2.06244
    A1        1.92581  -0.00047   0.00000   0.00039   0.00037   1.92619
    A2        2.00914   0.00079   0.00000   0.00095   0.00112   2.01026
    A3        1.72508   0.00091   0.00000   0.00274   0.00260   1.72768
    A4        2.01722   0.00138   0.00000   0.00527   0.00513   2.02235
    A5        1.89130   0.00074   0.00000  -0.00245  -0.00223   1.88907
    A6        1.86725  -0.00361   0.00000  -0.00820  -0.00832   1.85893
    A7        2.08143   0.00037   0.00000   0.00285   0.00305   2.08448
    A8        2.08176  -0.00067   0.00000  -0.00491  -0.00532   2.07643
    A9        2.09749   0.00028   0.00000   0.00313   0.00328   2.10077
   A10        2.08183  -0.00065   0.00000  -0.00490  -0.00531   2.07652
   A11        2.09746   0.00028   0.00000   0.00313   0.00329   2.10074
   A12        2.08148   0.00036   0.00000   0.00282   0.00303   2.08451
   A13        2.01721   0.00136   0.00000   0.00522   0.00508   2.02230
   A14        2.00899   0.00081   0.00000   0.00099   0.00115   2.01014
   A15        1.86789  -0.00362   0.00000  -0.00818  -0.00831   1.85958
   A16        1.92583  -0.00047   0.00000   0.00038   0.00037   1.92619
   A17        1.89114   0.00076   0.00000  -0.00245  -0.00222   1.88892
   A18        1.72472   0.00090   0.00000   0.00274   0.00261   1.72733
   A19        1.78773  -0.00098   0.00000  -0.00207  -0.00225   1.78548
   A20        1.79655  -0.00140   0.00000  -0.00415  -0.00434   1.79220
   A21        1.91107   0.00396   0.00000   0.01679   0.01736   1.92843
   A22        1.93395   0.00075   0.00000   0.00038   0.00043   1.93438
   A23        2.00289  -0.00153   0.00000  -0.00481  -0.00510   1.99779
   A24        2.00633  -0.00063   0.00000  -0.00479  -0.00478   2.00154
   A25        1.91116   0.00397   0.00000   0.01683   0.01741   1.92857
   A26        1.79618  -0.00140   0.00000  -0.00410  -0.00429   1.79189
   A27        1.78784  -0.00099   0.00000  -0.00214  -0.00232   1.78552
   A28        2.00653  -0.00064   0.00000  -0.00483  -0.00482   2.00171
   A29        2.00278  -0.00153   0.00000  -0.00479  -0.00509   1.99770
   A30        1.93398   0.00075   0.00000   0.00038   0.00043   1.93441
    D1        2.43285  -0.00096   0.00000  -0.01657  -0.01655   2.41630
    D2       -0.93464  -0.00102   0.00000  -0.01089  -0.01109  -0.94573
    D3        0.15449  -0.00248   0.00000  -0.02354  -0.02359   0.13090
    D4        3.07019  -0.00254   0.00000  -0.01786  -0.01813   3.05206
    D5       -1.95313  -0.00165   0.00000  -0.01772  -0.01786  -1.97099
    D6        0.96257  -0.00171   0.00000  -0.01204  -0.01240   0.95017
    D7       -0.90691  -0.00025   0.00000  -0.00226  -0.00233  -0.90924
    D8       -2.91538  -0.00023   0.00000  -0.00049  -0.00049  -2.91587
    D9        1.22596  -0.00067   0.00000  -0.00091  -0.00109   1.22486
   D10        1.09985  -0.00013   0.00000  -0.00144  -0.00150   1.09835
   D11       -0.90863  -0.00010   0.00000   0.00034   0.00034  -0.90829
   D12       -3.05047  -0.00054   0.00000  -0.00008  -0.00027  -3.05074
   D13       -2.99743  -0.00025   0.00000  -0.00162  -0.00176  -2.99919
   D14        1.27728  -0.00022   0.00000   0.00016   0.00008   1.27737
   D15       -0.86457  -0.00066   0.00000  -0.00026  -0.00052  -0.86509
   D16        0.00061   0.00000   0.00000  -0.00004  -0.00004   0.00057
   D17       -2.91348   0.00006   0.00000  -0.00568  -0.00547  -2.91895
   D18        2.91419  -0.00005   0.00000   0.00564   0.00543   2.91962
   D19        0.00010   0.00000   0.00000   0.00000   0.00000   0.00010
   D20       -3.06996   0.00256   0.00000   0.01793   0.01819  -3.05177
   D21        0.93501   0.00103   0.00000   0.01097   0.01117   0.94618
   D22       -0.96208   0.00172   0.00000   0.01209   0.01245  -0.94963
   D23       -0.15377   0.00249   0.00000   0.02357   0.02362  -0.13015
   D24       -2.43199   0.00097   0.00000   0.01661   0.01660  -2.41539
   D25        1.95411   0.00165   0.00000   0.01774   0.01788   1.97199
   D26        0.85975   0.00069   0.00000   0.00043   0.00070   0.86045
   D27       -1.28217   0.00025   0.00000   0.00000   0.00008  -1.28209
   D28        2.99260   0.00027   0.00000   0.00179   0.00193   2.99453
   D29        3.04595   0.00055   0.00000   0.00020   0.00039   3.04635
   D30        0.90403   0.00011   0.00000  -0.00022  -0.00022   0.90381
   D31       -1.10439   0.00014   0.00000   0.00156   0.00163  -1.10276
   D32       -1.23067   0.00068   0.00000   0.00103   0.00122  -1.22945
   D33        2.91060   0.00024   0.00000   0.00060   0.00060   2.91120
   D34        0.90218   0.00026   0.00000   0.00239   0.00245   0.90463
   D35        0.00291   0.00001   0.00000   0.00001   0.00001   0.00292
   D36        2.01421   0.00056   0.00000   0.00337   0.00350   2.01771
   D37       -1.99564  -0.00049   0.00000  -0.00568  -0.00565  -2.00129
   D38        2.00132   0.00050   0.00000   0.00576   0.00572   2.00704
   D39       -2.27056   0.00105   0.00000   0.00911   0.00921  -2.26136
   D40        0.00277   0.00001   0.00000   0.00006   0.00006   0.00283
   D41       -2.00867  -0.00054   0.00000  -0.00327  -0.00340  -2.01207
   D42        0.00263   0.00001   0.00000   0.00009   0.00009   0.00272
   D43        2.27596  -0.00104   0.00000  -0.00896  -0.00906   2.26691
         Item               Value     Threshold  Converged?
 Maximum Force            0.047086     0.000450     NO 
 RMS     Force            0.007169     0.000300     NO 
 Maximum Displacement     0.134427     0.001800     NO 
 RMS     Displacement     0.044480     0.001200     NO 
 Predicted change in Energy=-1.577567D-02
 Lowest energy point so far.  Saving SCF results.
 GradGradGradGradGradGradGradGradGradGradGradGradGradGradGradGradGradGrad

 Leave Link  103 at Sun May 12 21:01:15 2019, MaxMem=  2097152000 cpu:         0.2
 (Enter /mnt/e/g09/l202.exe)
                          Input orientation:                          
 ---------------------------------------------------------------------
 Center     Atomic      Atomic             Coordinates (Angstroms)
 Number     Number       Type             X           Y           Z
 ---------------------------------------------------------------------
      1          6           0        0.223056   -1.383792    0.441022
      2          1           0        0.139374   -1.102281    1.493359
      3          1           0        0.217999   -2.469801    0.337017
      4          6           0        1.255829   -0.676357   -0.311193
      5          1           0        1.874820   -1.226803   -1.017674
      6          6           0        1.255274    0.676994   -0.311872
      7          6           0        0.222403    1.384444    0.440182
      8          1           0        0.216338    2.470308    0.334780
      9          1           0        1.873756    1.227214   -1.018978
     10          1           0        0.139922    1.104215    1.492949
     11          6           0       -1.372593   -0.748721   -0.150390
     12          1           0       -2.077025   -1.202333    0.549013
     13          1           0       -1.459840   -1.202599   -1.137503
     14          6           0       -1.374052    0.747440   -0.148389
     15          1           0       -1.464860    1.203942   -1.133967
     16          1           0       -2.077407    1.197711    0.554241
 ---------------------------------------------------------------------
                    Distance matrix (angstroms):
                    1          2          3          4          5
     1  C    0.000000
     2  H    1.092549   0.000000
     3  H    1.090990   1.792601   0.000000
     4  C    1.460449   2.164322   2.171108   0.000000
     5  H    2.209245   3.054924   2.474932   1.088695   0.000000
     6  C    2.424698   2.769460   3.376287   1.353350   2.122837
     7  C    2.768236   2.701828   3.855628   2.424754   3.416788
     8  H    3.855570   3.756543   4.940110   3.376288   4.271806
     9  H    3.416688   3.840112   4.271788   2.122822   2.454018
    10  H    2.702525   2.206496   3.757108   2.769587   3.840149
    11  C    1.816364   2.261185   2.393671   2.634330   3.395060
    12  H    2.309754   2.411270   2.630314   3.482028   4.251139
    13  H    2.314456   3.080419   2.568102   2.886966   3.336900
    14  C    2.727693   2.899528   3.622276   2.994991   3.899803
    15  H    3.467855   3.846436   4.300255   3.408024   4.132252
    16  H    3.459639   3.329568   4.332057   3.920659   4.895843
                    6          7          8          9         10
     6  C    0.000000
     7  C    1.460443   0.000000
     8  H    2.171065   1.090984   0.000000
     9  H    1.088696   2.209261   2.474868   0.000000
    10  H    2.164234   1.092543   1.792597   3.054682   0.000000
    11  C    2.994064   2.728219   3.622463   3.898402   2.902006
    12  H    3.921378   3.462749   4.335171   4.895913   3.335571
    13  H    3.403877   3.465808   4.297376   4.126851   3.847065
    14  C    2.635345   1.816826   2.393964   3.396521   2.261282
    15  H    2.890094   2.314602   2.566579   3.340676   3.079928
    16  H    3.482536   2.310196   2.632287   4.252949   2.409660
                   11         12         13         14         15
    11  C    0.000000
    12  H    1.091400   0.000000
    13  H    1.089958   1.795899   0.000000
    14  C    1.496164   2.186815   2.188232   0.000000
    15  H    2.188339   2.999554   2.406549   1.089955   0.000000
    16  H    2.186748   2.400050   3.000813   1.091395   1.795911
                   16
    16  H    0.000000
 Symmetry turned off by external request.
 Stoichiometry    C6H10
 Framework group  C1[X(C6H10)]
 Deg. of freedom    42
 Full point group                 C1      NOp   1
 Rotational constants (GHZ):      4.5391492      4.1404029      2.5429854
 Leave Link  202 at Sun May 12 21:01:15 2019, MaxMem=  2097152000 cpu:         0.0
 (Enter /mnt/e/g09/l301.exe)
 Standard basis: 6-31G(d) (6D, 7F)
 Ernie: Thresh=  0.10000D-02 Tol=  0.10000D-05 Strict=F.
   110 basis functions,   208 primitive gaussians,   110 cartesian basis functions
    23 alpha electrons       23 beta electrons
       nuclear repulsion energy       231.6864974883 Hartrees.
 IExCor=  402 DFT=T Ex+Corr=B3LYP ExCW=0 ScaHFX=  0.200000
 ScaDFX=  0.800000  0.720000  1.000000  0.810000 ScalE2=  1.000000  1.000000
 IRadAn=      0 IRanWt=     -1 IRanGd=            0 ICorTp=0 IEmpDi=131
 NAtoms=   16 NActive=   16 NUniq=   16 SFac= 1.00D+00 NAtFMM=   60 NAOKFM=F Big=F
 Integral buffers will be    131072 words long.
 Raffenetti 2 integral format.
 Two-electron integral symmetry is turned off.
 R6Disp:  Grimme-D3 Dispersion energy=       -0.0104835880 Hartrees.
 Nuclear repulsion after empirical dispersion term =      231.6760139003 Hartrees.
 Leave Link  301 at Sun May 12 21:01:16 2019, MaxMem=  2097152000 cpu:         0.1
 (Enter /mnt/e/g09/l302.exe)
 NPDir=0 NMtPBC=     1 NCelOv=     1 NCel=       1 NClECP=     1 NCelD=      1
         NCelK=      1 NCelE2=     1 NClLst=     1 CellRange=     0.0.
 One-electron integrals computed using PRISM.
 NBasis=   110 RedAO= T EigKep=  2.07D-03  NBF=   110
 NBsUse=   110 1.00D-06 EigRej= -1.00D+00 NBFU=   110
 Precomputing XC quadrature grid using
 IXCGrd= 4 IRadAn=           0 IRanWt=          -1 IRanGd=           0 AccXCQ= 0.00D+00.
 Generated NRdTot=       0 NPtTot=           0 NUsed=           0 NTot=          32
 NSgBfM=   110   110   110   110   110 MxSgAt=    16 MxSgA2=    16.
 Leave Link  302 at Sun May 12 21:01:16 2019, MaxMem=  2097152000 cpu:         0.5
 (Enter /mnt/e/g09/l303.exe)
 DipDrv:  MaxL=1.
 Leave Link  303 at Sun May 12 21:01:16 2019, MaxMem=  2097152000 cpu:         0.1
 (Enter /mnt/e/g09/l401.exe)
 Initial guess from the checkpoint file:  "/mnt/e/scratch/Gau-12172.chk"
 B after Tr=    -0.002243   -0.000006   -0.000754
         Rot=    0.999999   -0.000002   -0.001646    0.000000 Ang=  -0.19 deg.
 Guess basis will be translated and rotated to current coordinates.
 JPrj=2 DoOrth=T DoCkMO=T.
 Generating alternative initial guess.
 ExpMin= 1.61D-01 ExpMax= 3.05D+03 ExpMxC= 4.57D+02 IAcc=1 IRadAn=         1 AccDes= 0.00D+00
 Harris functional with IExCor=  402 and IRadAn=       1 diagonalized for initial guess.
 HarFok:  IExCor=  402 AccDes= 0.00D+00 IRadAn=         1 IDoV= 1 UseB2=F ITyADJ=14
 ICtDFT=  3500011 ScaDFX=  1.000000  1.000000  1.000000  1.000000
 FoFCou: FMM=F IPFlag=           0 FMFlag=      100000 FMFlg1=           0
         NFxFlg=           0 DoJE=T BraDBF=F KetDBF=T FulRan=T
         wScrn=  0.000000 ICntrl=     500 IOpCl=  0 I1Cent=   200000004 NGrid=           0
         NMat0=    1 NMatS0=      1 NMatT0=    0 NMatD0=    1 NMtDS0=    0 NMtDT0=    0
 Symmetry not used in FoFCou.
 Harris En= -234.658314223050    
 Leave Link  401 at Sun May 12 21:01:16 2019, MaxMem=  2097152000 cpu:         1.1
 (Enter /mnt/e/g09/l502.exe)
 Closed shell SCF:
 Using DIIS extrapolation, IDIIS=  1040.
 Two-electron integral symmetry not used.
 Keep R1 ints in memory in canonical form, NReq=19626885.
 IVT=       56422 IEndB=       56422 NGot=  2097152000 MDV=  2078457014
 LenX=  2078457014 LenY=  2078444473
 Requested convergence on RMS density matrix=1.00D-08 within 128 cycles.
 Requested convergence on MAX density matrix=1.00D-06.
 Requested convergence on             energy=1.00D-06.
 No special actions if energy rises.
 FoFCou: FMM=F IPFlag=           0 FMFlag=           0 FMFlg1=           0
         NFxFlg=           0 DoJE=F BraDBF=F KetDBF=F FulRan=T
         wScrn=  0.000000 ICntrl=     600 IOpCl=  0 I1Cent=           0 NGrid=           0
         NMat0=    1 NMatS0=   6105 NMatT0=    0 NMatD0=    1 NMtDS0=    0 NMtDT0=    0
 Symmetry not used in FoFCou.
 Integral accuracy reduced to 1.0D-05 until final iterations.

 Cycle   1  Pass 0  IDiag  1:
 E= -234.606484413307    
 DIIS: error= 3.61D-03 at cycle   1 NSaved=   1.
 NSaved= 1 IEnMin= 1 EnMin= -234.606484413307     IErMin= 1 ErrMin= 3.61D-03
 ErrMax= 3.61D-03  0.00D+00 EMaxC= 1.00D-01 BMatC= 1.33D-03 BMatP= 1.33D-03
 IDIUse=3 WtCom= 9.64D-01 WtEn= 3.61D-02
 Coeff-Com:  0.100D+01
 Coeff-En:   0.100D+01
 Coeff:      0.100D+01
 Gap=     1.794 Goal=   None    Shift=    0.000
 GapD=    1.794 DampG=2.000 DampE=1.000 DampFc=2.0000 IDamp=-1.
 RMSDP=7.55D-04 MaxDP=6.61D-03              OVMax= 3.12D-02

 Cycle   2  Pass 0  IDiag  1:
 E= -234.609572527753     Delta-E=       -0.003088114446 Rises=F Damp=F
 DIIS: error= 8.60D-04 at cycle   2 NSaved=   2.
 NSaved= 2 IEnMin= 2 EnMin= -234.609572527753     IErMin= 2 ErrMin= 8.60D-04
 ErrMax= 8.60D-04  0.00D+00 EMaxC= 1.00D-01 BMatC= 1.18D-04 BMatP= 1.33D-03
 IDIUse=3 WtCom= 9.91D-01 WtEn= 8.60D-03
 Coeff-Com:  0.895D-01 0.911D+00
 Coeff-En:   0.000D+00 0.100D+01
 Coeff:      0.887D-01 0.911D+00
 Gap=     0.244 Goal=   None    Shift=    0.000
 RMSDP=1.89D-04 MaxDP=2.04D-03 DE=-3.09D-03 OVMax= 6.85D-03

 Cycle   3  Pass 0  IDiag  1:
 E= -234.609626097138     Delta-E=       -0.000053569385 Rises=F Damp=F
 DIIS: error= 7.48D-04 at cycle   3 NSaved=   3.
 NSaved= 3 IEnMin= 3 EnMin= -234.609626097138     IErMin= 3 ErrMin= 7.48D-04
 ErrMax= 7.48D-04  0.00D+00 EMaxC= 1.00D-01 BMatC= 8.65D-05 BMatP= 1.18D-04
 IDIUse=3 WtCom= 9.93D-01 WtEn= 7.48D-03
 Coeff-Com: -0.321D-01 0.463D+00 0.569D+00
 Coeff-En:   0.000D+00 0.357D+00 0.643D+00
 Coeff:     -0.319D-01 0.462D+00 0.570D+00
 Gap=     0.244 Goal=   None    Shift=    0.000
 RMSDP=1.10D-04 MaxDP=1.12D-03 DE=-5.36D-05 OVMax= 3.98D-03

 Cycle   4  Pass 0  IDiag  1:
 E= -234.609713952745     Delta-E=       -0.000087855607 Rises=F Damp=F
 DIIS: error= 1.90D-04 at cycle   4 NSaved=   4.
 NSaved= 4 IEnMin= 4 EnMin= -234.609713952745     IErMin= 4 ErrMin= 1.90D-04
 ErrMax= 1.90D-04  0.00D+00 EMaxC= 1.00D-01 BMatC= 3.52D-06 BMatP= 8.65D-05
 IDIUse=3 WtCom= 9.98D-01 WtEn= 1.90D-03
 Coeff-Com: -0.146D-01 0.130D+00 0.242D+00 0.643D+00
 Coeff-En:   0.000D+00 0.000D+00 0.000D+00 0.100D+01
 Coeff:     -0.146D-01 0.129D+00 0.242D+00 0.644D+00
 Gap=     0.244 Goal=   None    Shift=    0.000
 RMSDP=2.33D-05 MaxDP=3.14D-04 DE=-8.79D-05 OVMax= 9.48D-04

 Cycle   5  Pass 0  IDiag  1:
 E= -234.609717596411     Delta-E=       -0.000003643666 Rises=F Damp=F
 DIIS: error= 4.25D-05 at cycle   5 NSaved=   5.
 NSaved= 5 IEnMin= 5 EnMin= -234.609717596411     IErMin= 5 ErrMin= 4.25D-05
 ErrMax= 4.25D-05  0.00D+00 EMaxC= 1.00D-01 BMatC= 2.81D-07 BMatP= 3.52D-06
 IDIUse=1 WtCom= 1.00D+00 WtEn= 0.00D+00
 Coeff-Com: -0.533D-02 0.352D-01 0.889D-01 0.310D+00 0.571D+00
 Coeff:     -0.533D-02 0.352D-01 0.889D-01 0.310D+00 0.571D+00
 Gap=     0.244 Goal=   None    Shift=    0.000
 RMSDP=5.95D-06 MaxDP=1.13D-04 DE=-3.64D-06 OVMax= 3.04D-04

 Initial convergence to 1.0D-05 achieved.  Increase integral accuracy.
 Cycle   6  Pass 1  IDiag  1:
 E= -234.609723036401     Delta-E=       -0.000005439990 Rises=F Damp=F
 DIIS: error= 1.98D-05 at cycle   1 NSaved=   1.
 NSaved= 1 IEnMin= 1 EnMin= -234.609723036401     IErMin= 1 ErrMin= 1.98D-05
 ErrMax= 1.98D-05  0.00D+00 EMaxC= 1.00D-01 BMatC= 6.12D-08 BMatP= 6.12D-08
 IDIUse=1 WtCom= 1.00D+00 WtEn= 0.00D+00
 Coeff-Com:  0.100D+01
 Coeff:      0.100D+01
 Gap=     0.244 Goal=   None    Shift=    0.000
 RMSDP=5.95D-06 MaxDP=1.13D-04 DE=-5.44D-06 OVMax= 1.90D-04

 Cycle   7  Pass 1  IDiag  1:
 E= -234.609722983408     Delta-E=        0.000000052993 Rises=F Damp=F
 DIIS: error= 2.65D-05 at cycle   2 NSaved=   2.
 NSaved= 2 IEnMin= 1 EnMin= -234.609723036401     IErMin= 1 ErrMin= 1.98D-05
 ErrMax= 2.65D-05  0.00D+00 EMaxC= 1.00D-01 BMatC= 1.18D-07 BMatP= 6.12D-08
 IDIUse=1 WtCom= 1.00D+00 WtEn= 0.00D+00
 Coeff-Com:  0.587D+00 0.413D+00
 Coeff:      0.587D+00 0.413D+00
 Gap=     0.244 Goal=   None    Shift=    0.000
 RMSDP=3.18D-06 MaxDP=6.14D-05 DE= 5.30D-08 OVMax= 1.35D-04

 Cycle   8  Pass 1  IDiag  1:
 E= -234.609723109762     Delta-E=       -0.000000126354 Rises=F Damp=F
 DIIS: error= 4.84D-06 at cycle   3 NSaved=   3.
 NSaved= 3 IEnMin= 3 EnMin= -234.609723109762     IErMin= 3 ErrMin= 4.84D-06
 ErrMax= 4.84D-06  0.00D+00 EMaxC= 1.00D-01 BMatC= 1.51D-09 BMatP= 6.12D-08
 IDIUse=1 WtCom= 1.00D+00 WtEn= 0.00D+00
 Coeff-Com:  0.606D-01 0.117D+00 0.822D+00
 Coeff:      0.606D-01 0.117D+00 0.822D+00
 Gap=     0.244 Goal=   None    Shift=    0.000
 RMSDP=4.77D-07 MaxDP=7.80D-06 DE=-1.26D-07 OVMax= 2.03D-05

 Cycle   9  Pass 1  IDiag  1:
 E= -234.609723111345     Delta-E=       -0.000000001583 Rises=F Damp=F
 DIIS: error= 1.01D-06 at cycle   4 NSaved=   4.
 NSaved= 4 IEnMin= 4 EnMin= -234.609723111345     IErMin= 4 ErrMin= 1.01D-06
 ErrMax= 1.01D-06  0.00D+00 EMaxC= 1.00D-01 BMatC= 1.65D-10 BMatP= 1.51D-09
 IDIUse=1 WtCom= 1.00D+00 WtEn= 0.00D+00
 Coeff-Com: -0.106D-01 0.247D-01 0.346D+00 0.639D+00
 Coeff:     -0.106D-01 0.247D-01 0.346D+00 0.639D+00
 Gap=     0.244 Goal=   None    Shift=    0.000
 RMSDP=1.49D-07 MaxDP=1.90D-06 DE=-1.58D-09 OVMax= 4.73D-06

 Cycle  10  Pass 1  IDiag  1:
 E= -234.609723111499     Delta-E=       -0.000000000155 Rises=F Damp=F
 DIIS: error= 2.86D-07 at cycle   5 NSaved=   5.
 NSaved= 5 IEnMin= 5 EnMin= -234.609723111499     IErMin= 5 ErrMin= 2.86D-07
 ErrMax= 2.86D-07  0.00D+00 EMaxC= 1.00D-01 BMatC= 1.57D-11 BMatP= 1.65D-10
 IDIUse=1 WtCom= 1.00D+00 WtEn= 0.00D+00
 Coeff-Com: -0.999D-02 0.558D-02 0.134D+00 0.326D+00 0.544D+00
 Coeff:     -0.999D-02 0.558D-02 0.134D+00 0.326D+00 0.544D+00
 Gap=     0.244 Goal=   None    Shift=    0.000
 RMSDP=4.31D-08 MaxDP=4.71D-07 DE=-1.55D-10 OVMax= 9.72D-07

 Cycle  11  Pass 1  IDiag  1:
 E= -234.609723111518     Delta-E=       -0.000000000018 Rises=F Damp=F
 DIIS: error= 5.06D-08 at cycle   6 NSaved=   6.
 NSaved= 6 IEnMin= 6 EnMin= -234.609723111518     IErMin= 6 ErrMin= 5.06D-08
 ErrMax= 5.06D-08  0.00D+00 EMaxC= 1.00D-01 BMatC= 7.69D-14 BMatP= 1.57D-11
 IDIUse=1 WtCom= 1.00D+00 WtEn= 0.00D+00
 Coeff-Com: -0.295D-04-0.909D-03-0.861D-02-0.186D-01 0.159D-01 0.101D+01
 Coeff:     -0.295D-04-0.909D-03-0.861D-02-0.186D-01 0.159D-01 0.101D+01
 Gap=     0.244 Goal=   None    Shift=    0.000
 RMSDP=7.31D-09 MaxDP=7.94D-08 DE=-1.82D-11 OVMax= 4.26D-07

 SCF Done:  E(RB3LYP) =  -234.609723112     A.U. after   11 cycles
            NFock= 11  Conv=0.73D-08     -V/T= 2.0112
 KE= 2.320007877817D+02 PE=-1.005417010420D+03 EE= 3.071304856264D+02
 Leave Link  502 at Sun May 12 21:01:18 2019, MaxMem=  2097152000 cpu:        13.7
 (Enter /mnt/e/g09/l701.exe)
 Compute integral first derivatives.
 ... and contract with generalized density number  0.
 R6Disp: Adding Grimme-D3 dispersion energy 1st derivatives to the gradient.
 Leave Link  701 at Sun May 12 21:01:18 2019, MaxMem=  2097152000 cpu:         0.4
 (Enter /mnt/e/g09/l702.exe)
 L702 exits ... SP integral derivatives will be done elsewhere.
 Leave Link  702 at Sun May 12 21:01:18 2019, MaxMem=  2097152000 cpu:         0.0
 (Enter /mnt/e/g09/l703.exe)
 Compute integral first derivatives, UseDBF=F ICtDFT=           0.
 Integral derivatives from FoFJK, PRISM(SPDF).
 Calling FoFJK, ICntrl=      2127 FMM=F ISym2X=0 I1Cent= 0 IOpClX= 0 NMat=1 NMatS=1 NMatT=0.
 FoFJK:  IHMeth= 1 ICntrl=    2127 DoSepK=F KAlg= 0 I1Cent=   0 FoldK=F
 IRaf=         0 NMat=   1 IRICut=       1 DoRegI=T DoRafI=F ISym2E= 0.
 FoFCou: FMM=F IPFlag=           0 FMFlag=      100000 FMFlg1=         800
         NFxFlg=           0 DoJE=F BraDBF=F KetDBF=F FulRan=T
         wScrn=  0.000000 ICntrl=    2127 IOpCl=  0 I1Cent=           0 NGrid=           0
         NMat0=    1 NMatS0=      1 NMatT0=    0 NMatD0=    1 NMtDS0=    0 NMtDT0=    0
 Symmetry not used in FoFCou.
 Leave Link  703 at Sun May 12 21:01:19 2019, MaxMem=  2097152000 cpu:         5.2
 (Enter /mnt/e/g09/l716.exe)
 Dipole        =-2.16325577D-01-2.14370878D-04-2.08065404D-02
 -------------------------------------------------------------------
 Center     Atomic                   Forces (Hartrees/Bohr)
 Number     Number              X              Y              Z
 -------------------------------------------------------------------
      1        6          -0.048481083    0.014707180   -0.010782983
      2        1           0.005381612   -0.002604010    0.002221723
      3        1          -0.000229384    0.000179220   -0.000096803
      4        6           0.004636203    0.008547145   -0.006534419
      5        1           0.002274375   -0.000317789    0.002485771
      6        6           0.004635951   -0.008536747   -0.006532242
      7        6          -0.048493931   -0.014761175   -0.010693207
      8        1          -0.000233366   -0.000178396   -0.000089298
      9        1           0.002279012    0.000323778    0.002490604
     10        1           0.005389982    0.002606947    0.002210489
     11        6           0.043480505   -0.024957266    0.015544402
     12        1          -0.003457887    0.001132748   -0.002156475
     13        1          -0.003614548    0.001385370   -0.000681922
     14        6           0.043509103    0.024998362    0.015442676
     15        1          -0.003636754   -0.001408358   -0.000684103
     16        1          -0.003439789   -0.001117009   -0.002144213
 -------------------------------------------------------------------
 Cartesian Forces:  Max     0.048493931 RMS     0.015359516
 Leave Link  716 at Sun May 12 21:01:19 2019, MaxMem=  2097152000 cpu:         0.0
 (Enter /mnt/e/g09/l103.exe)

 GradGradGradGradGradGradGradGradGradGradGradGradGradGradGradGradGradGrad
 Berny optimization.
 Using GEDIIS/GDIIS optimizer.
 FormGI is forming the generalized inverse of G from B-inverse, IUseBI=4.
 Internal  Forces:  Max     0.041034481 RMS     0.006548392
 Search for a local minimum.
 Step number   2 out of a maximum of   99
 All quantities printed in internal units (Hartrees-Bohrs-Radians)
 RMS Force = .65484D-02 SwitMx=.10000D-02 MixMth= 1
 Mixed Optimization -- RFO/linear search
 Update second derivatives using D2CorX and points    1    2
 DE= -1.95D-02 DEPred=-1.58D-02 R= 1.24D+00
 TightC=F SS=  1.41D+00  RLast= 3.06D-01 DXNew= 5.0454D-01 9.1856D-01
 Trust test= 1.24D+00 RLast= 3.06D-01 DXMaxT set to 5.05D-01
 ITU=  1  0
 Use linear search instead of GDIIS.
 Linear search step of   0.509 exceeds DXMaxT=   0.505 but not scaled.
 Quartic linear search produced a step of  1.69659.
 Iteration  1 RMS(Cart)=  0.04390412 RMS(Int)=  0.02353107
 Iteration  2 RMS(Cart)=  0.03241106 RMS(Int)=  0.00097436
 Iteration  3 RMS(Cart)=  0.00023729 RMS(Int)=  0.00096179
 Iteration  4 RMS(Cart)=  0.00000029 RMS(Int)=  0.00096179
 ITry= 1 IFail=0 DXMaxC= 2.27D-01 DCOld= 1.00D+10 DXMaxT= 5.05D-01 DXLimC= 3.00D+00 Rises=F
 Variable       Old X    -DE/DX   Delta X   Delta X   Delta X     New X
                                 (Linear)    (Quad)   (Total)
    R1        2.06462   0.00106  -0.00115   0.00000  -0.00115   2.06347
    R2        2.06167  -0.00017  -0.00227   0.00000  -0.00227   2.05940
    R3        2.75985   0.00782   0.00177   0.00000   0.00062   2.76047
    R4        3.43243  -0.04103  -0.35743   0.00000  -0.35651   3.07592
    R5        2.05734  -0.00016  -0.00055   0.00000  -0.00055   2.05679
    R6        2.55746  -0.00647  -0.00632   0.00000  -0.00875   2.54871
    R7        2.75984   0.00782   0.00173   0.00000   0.00057   2.76041
    R8        2.05734  -0.00016  -0.00055   0.00000  -0.00055   2.05679
    R9        2.06166  -0.00017  -0.00227   0.00000  -0.00227   2.05939
   R10        2.06461   0.00105  -0.00114   0.00000  -0.00114   2.06347
   R11        3.43330  -0.04103  -0.35754   0.00000  -0.35662   3.07669
   R12        2.06245   0.00038  -0.00244   0.00000  -0.00244   2.06000
   R13        2.05972   0.00033  -0.00230   0.00000  -0.00230   2.05742
   R14        2.82734   0.00840   0.00020   0.00000   0.00263   2.82997
   R15        2.05972   0.00033  -0.00230   0.00000  -0.00230   2.05742
   R16        2.06244   0.00038  -0.00245   0.00000  -0.00245   2.05999
    A1        1.92619  -0.00089   0.00063   0.00000   0.00058   1.92677
    A2        2.01026  -0.00142   0.00189   0.00000   0.00270   2.01295
    A3        1.72768   0.00320   0.00442   0.00000   0.00369   1.73137
    A4        2.02235  -0.00063   0.00871   0.00000   0.00793   2.03028
    A5        1.88907   0.00052  -0.00378   0.00000  -0.00275   1.88633
    A6        1.85893   0.00005  -0.01412   0.00000  -0.01448   1.84445
    A7        2.08448   0.00122   0.00517   0.00000   0.00624   2.09071
    A8        2.07643  -0.00189  -0.00903   0.00000  -0.01118   2.06525
    A9        2.10077   0.00061   0.00557   0.00000   0.00639   2.10716
   A10        2.07652  -0.00187  -0.00901   0.00000  -0.01117   2.06535
   A11        2.10074   0.00060   0.00558   0.00000   0.00640   2.10714
   A12        2.08451   0.00121   0.00513   0.00000   0.00620   2.09071
   A13        2.02230  -0.00064   0.00863   0.00000   0.00786   2.03015
   A14        2.01014  -0.00141   0.00196   0.00000   0.00276   2.01290
   A15        1.85958   0.00005  -0.01409   0.00000  -0.01445   1.84513
   A16        1.92619  -0.00089   0.00062   0.00000   0.00057   1.92677
   A17        1.88892   0.00053  -0.00377   0.00000  -0.00274   1.88618
   A18        1.72733   0.00320   0.00442   0.00000   0.00369   1.73102
   A19        1.78548   0.00161  -0.00382   0.00000  -0.00468   1.78080
   A20        1.79220   0.00134  -0.00737   0.00000  -0.00829   1.78391
   A21        1.92843   0.00192   0.02946   0.00000   0.03221   1.96064
   A22        1.93438  -0.00035   0.00073   0.00000   0.00095   1.93533
   A23        1.99779  -0.00237  -0.00866   0.00000  -0.01009   1.98770
   A24        2.00154  -0.00128  -0.00812   0.00000  -0.00805   1.99349
   A25        1.92857   0.00193   0.02954   0.00000   0.03230   1.96087
   A26        1.79189   0.00134  -0.00728   0.00000  -0.00821   1.78368
   A27        1.78552   0.00160  -0.00394   0.00000  -0.00481   1.78071
   A28        2.00171  -0.00128  -0.00818   0.00000  -0.00812   1.99359
   A29        1.99770  -0.00237  -0.00863   0.00000  -0.01006   1.98764
   A30        1.93441  -0.00034   0.00073   0.00000   0.00095   1.93536
    D1        2.41630  -0.00425  -0.02808   0.00000  -0.02805   2.38825
    D2       -0.94573  -0.00445  -0.01882   0.00000  -0.01983  -0.96556
    D3        0.13090  -0.00074  -0.04002   0.00000  -0.04022   0.09068
    D4        3.05206  -0.00094  -0.03075   0.00000  -0.03200   3.02006
    D5       -1.97099  -0.00105  -0.03030   0.00000  -0.03099  -2.00198
    D6        0.95017  -0.00125  -0.02103   0.00000  -0.02277   0.92740
    D7       -0.90924  -0.00025  -0.00394   0.00000  -0.00421  -0.91345
    D8       -2.91587  -0.00091  -0.00082   0.00000  -0.00082  -2.91669
    D9        1.22486  -0.00116  -0.00185   0.00000  -0.00278   1.22208
   D10        1.09835   0.00033  -0.00255   0.00000  -0.00287   1.09548
   D11       -0.90829  -0.00032   0.00057   0.00000   0.00053  -0.90775
   D12       -3.05074  -0.00057  -0.00046   0.00000  -0.00143  -3.05217
   D13       -2.99919  -0.00009  -0.00298   0.00000  -0.00368  -3.00287
   D14        1.27737  -0.00074   0.00014   0.00000  -0.00029   1.27708
   D15       -0.86509  -0.00099  -0.00089   0.00000  -0.00225  -0.86734
   D16        0.00057   0.00000  -0.00006   0.00000  -0.00006   0.00051
   D17       -2.91895   0.00013  -0.00928   0.00000  -0.00825  -2.92720
   D18        2.91962  -0.00013   0.00922   0.00000   0.00819   2.92780
   D19        0.00010   0.00000   0.00000   0.00000   0.00000   0.00009
   D20       -3.05177   0.00095   0.03086   0.00000   0.03210  -3.01967
   D21        0.94618   0.00446   0.01895   0.00000   0.01997   0.96615
   D22       -0.94963   0.00126   0.02112   0.00000   0.02286  -0.92677
   D23       -0.13015   0.00075   0.04007   0.00000   0.04027  -0.08989
   D24       -2.41539   0.00426   0.02817   0.00000   0.02814  -2.38725
   D25        1.97199   0.00106   0.03033   0.00000   0.03102   2.00301
   D26        0.86045   0.00102   0.00118   0.00000   0.00254   0.86298
   D27       -1.28209   0.00076   0.00014   0.00000   0.00056  -1.28152
   D28        2.99453   0.00011   0.00328   0.00000   0.00398   2.99850
   D29        3.04635   0.00058   0.00067   0.00000   0.00164   3.04799
   D30        0.90381   0.00033  -0.00037   0.00000  -0.00033   0.90348
   D31       -1.10276  -0.00032   0.00277   0.00000   0.00308  -1.09968
   D32       -1.22945   0.00117   0.00206   0.00000   0.00299  -1.22647
   D33        2.91120   0.00092   0.00102   0.00000   0.00101   2.91221
   D34        0.90463   0.00027   0.00416   0.00000   0.00443   0.90906
   D35        0.00292   0.00000   0.00002   0.00000   0.00002   0.00294
   D36        2.01771   0.00222   0.00593   0.00000   0.00660   2.02431
   D37       -2.00129  -0.00184  -0.00958   0.00000  -0.00935  -2.01064
   D38        2.00704   0.00185   0.00970   0.00000   0.00947   2.01651
   D39       -2.26136   0.00407   0.01562   0.00000   0.01605  -2.24531
   D40        0.00283   0.00001   0.00011   0.00000   0.00010   0.00294
   D41       -2.01207  -0.00221  -0.00577   0.00000  -0.00643  -2.01850
   D42        0.00272   0.00001   0.00015   0.00000   0.00015   0.00287
   D43        2.26691  -0.00405  -0.01536   0.00000  -0.01580   2.25111
         Item               Value     Threshold  Converged?
 Maximum Force            0.041034     0.000450     NO 
 RMS     Force            0.006548     0.000300     NO 
 Maximum Displacement     0.227360     0.001800     NO 
 RMS     Displacement     0.075418     0.001200     NO 
 Predicted change in Energy=-2.673163D-02
 Lowest energy point so far.  Saving SCF results.
 GradGradGradGradGradGradGradGradGradGradGradGradGradGradGradGradGradGrad

 Leave Link  103 at Sun May 12 21:01:19 2019, MaxMem=  2097152000 cpu:         0.0
 (Enter /mnt/e/g09/l202.exe)
                          Input orientation:                          
 ---------------------------------------------------------------------
 Center     Atomic      Atomic             Coordinates (Angstroms)
 Number     Number       Type             X           Y           Z
 ---------------------------------------------------------------------
      1          6           0        0.153698   -1.367368    0.420191
      2          1           0        0.074689   -1.094407    1.474510
      3          1           0        0.113447   -2.450214    0.304175
      4          6           0        1.199114   -0.674046   -0.328326
      5          1           0        1.827025   -1.230279   -1.021840
      6          6           0        1.198558    0.674675   -0.328913
      7          6           0        0.153028    1.367898    0.419475
      8          1           0        0.111782    2.450553    0.302095
      9          1           0        1.825951    1.230809   -1.022976
     10          1           0        0.075180    1.096238    1.474214
     11          6           0       -1.253879   -0.749376   -0.114824
     12          1           0       -1.973068   -1.192286    0.574328
     13          1           0       -1.339570   -1.194867   -1.104545
     14          6           0       -1.255224    0.748180   -0.112994
     15          1           0       -1.344546    1.196024   -1.101332
     16          1           0       -1.973192    1.188047    0.579359
 ---------------------------------------------------------------------
                    Distance matrix (angstroms):
                    1          2          3          4          5
     1  C    0.000000
     2  H    1.091943   0.000000
     3  H    1.089787   1.791479   0.000000
     4  C    1.460776   2.165929   2.175661   0.000000
     5  H    2.213203   3.053015   2.486545   1.088407   0.000000
     6  C    2.413053   2.764971   3.367966   1.348721   2.122256
     7  C    2.735266   2.679958   3.820057   2.413097   3.410305
     8  H    3.819977   3.733989   4.900768   3.367913   4.271228
     9  H    3.410232   3.835489   4.271291   2.122247   2.461088
    10  H    2.680762   2.190645   3.734672   2.765192   3.835614
    11  C    1.627707   2.100029   2.222159   2.463419   3.247448
    12  H    2.139520   2.239021   2.451308   3.338577   4.121881
    13  H    2.141128   2.943085   2.381522   2.705308   3.167873
    14  C    2.597092   2.771996   3.503856   2.844796   3.773666
    15  H    3.336278   3.727635   4.170881   3.250371   3.994012
    16  H    3.328535   3.194481   4.203181   3.788774   4.780564
                    6          7          8          9         10
     6  C    0.000000
     7  C    1.460745   0.000000
     8  H    2.175545   1.089781   0.000000
     9  H    1.088408   2.213172   2.486355   0.000000
    10  H    2.165863   1.091940   1.791472   3.052748   0.000000
    11  C    2.843977   2.597636   3.504055   3.772430   2.774478
    12  H    3.789538   3.331487   4.206066   4.780723   3.200384
    13  H    3.246366   3.334405   4.168231   3.988870   3.728362
    14  C    2.464360   1.628112   2.222404   3.248790   2.100083
    15  H    2.708471   2.141291   2.379988   3.171656   2.942621
    16  H    3.338938   2.139794   2.453144   4.123444   2.237190
                   11         12         13         14         15
    11  C    0.000000
    12  H    1.090107   0.000000
    13  H    1.088740   1.794420   0.000000
    14  C    1.497557   2.180165   2.183053   0.000000
    15  H    2.183117   2.984444   2.390899   1.088740   0.000000
    16  H    2.180116   2.380339   2.985849   1.090098   1.794430
                   16
    16  H    0.000000
 Symmetry turned off by external request.
 Stoichiometry    C6H10
 Framework group  C1[X(C6H10)]
 Deg. of freedom    42
 Full point group                 C1      NOp   1
 Rotational constants (GHZ):      4.6794795      4.6452778      2.7415091
[...]
   D16        0.00056   0.00001   0.00000   0.00067   0.00067   0.00123
   D17        3.13954   0.00001   0.00000   0.00044   0.00044   3.13998
   D18       -3.13914   0.00001   0.00000   0.00016   0.00016  -3.13898
   D19       -0.00016   0.00001   0.00000  -0.00007  -0.00007  -0.00022
   D20       -2.94998   0.00000   0.00000  -0.00023  -0.00023  -2.95022
   D21        1.29070   0.00001   0.00000  -0.00002  -0.00002   1.29068
   D22       -0.80206   0.00001   0.00000   0.00009   0.00009  -0.80197
   D23        0.19417   0.00000   0.00000  -0.00001  -0.00001   0.19416
   D24       -1.84833   0.00001   0.00000   0.00021   0.00021  -1.84813
   D25        2.34209   0.00001   0.00000   0.00032   0.00032   2.34241
   D26        0.75571   0.00001   0.00000  -0.00209  -0.00209   0.75362
   D27       -1.35713   0.00000   0.00000  -0.00230  -0.00230  -1.35943
   D28        2.91524   0.00000   0.00000  -0.00216  -0.00216   2.91307
   D29        2.92020   0.00000   0.00000  -0.00180  -0.00180   2.91839
   D30        0.80736   0.00000   0.00000  -0.00201  -0.00201   0.80535
   D31       -1.20346   0.00000   0.00000  -0.00188  -0.00188  -1.20534
   D32       -1.34094   0.00001   0.00000  -0.00190  -0.00190  -1.34283
   D33        2.82941   0.00001   0.00000  -0.00211  -0.00211   2.82730
   D34        0.81859   0.00001   0.00000  -0.00197  -0.00197   0.81662
   D35        0.00226   0.00000   0.00000   0.00322   0.00322   0.00549
   D36        2.10325   0.00001   0.00000   0.00355   0.00355   2.10680
   D37       -2.14255   0.00000   0.00000   0.00337   0.00337  -2.13917
   D38        2.14739   0.00000   0.00000   0.00344   0.00344   2.15083
   D39       -2.03481   0.00000   0.00000   0.00376   0.00376  -2.03105
   D40        0.00259  -0.00001   0.00000   0.00358   0.00358   0.00617
   D41       -2.09836   0.00000   0.00000   0.00352   0.00352  -2.09484
   D42        0.00263   0.00001   0.00000   0.00385   0.00385   0.00647
   D43        2.04002   0.00000   0.00000   0.00367   0.00367   2.04369
         Item               Value     Threshold  Converged?
 Maximum Force            0.000118     0.000450     YES
 RMS     Force            0.000017     0.000300     YES
 Maximum Displacement     0.005544     0.001800     NO 
 RMS     Displacement     0.001448     0.001200     NO 
 Predicted change in Energy=-7.096003D-08
 GradGradGradGradGradGradGradGradGradGradGradGradGradGradGradGradGradGrad

 Leave Link  103 at Sun May 12 21:02:06 2019, MaxMem=  2097152000 cpu:         0.1
 (Enter /mnt/e/g09/l9999.exe)
 1\1\GINC-DESKTOP-P4HQ21A\Freq\RB3LYP\6-31G(d)\C6H10\XINYAN\12-May-2019
 \0\\#P Geom=AllCheck Guess=TCheck SCRF=Check GenChk RB3LYP/6-31G(d) Fr
 eq\\Title\\0,1\C,0.0910878403,-1.3927119802,0.336837715\H,0.211890839,
 -1.3132139344,1.4289888331\H,0.1006541942,-2.4637905233,0.1058936516\C
 ,1.2279116593,-0.6681509506,-0.340997095\H,2.0250040122,-1.2386408054,
 -0.8133641674\C,1.2271432177,0.6687855262,-0.3415997188\C,0.0899282099
 ,1.3928238226,0.3361793246\H,0.0983833145,2.4637183186,0.1043737743\H,
 2.0236791411,1.2397153132,-0.8143728766\H,0.2116400104,1.3143808606,1.
 428293753\C,-1.2754884029,-0.778289153,-0.0600274972\H,-2.0512894651,-
 1.1653312134,0.6112113288\H,-1.5280994575,-1.13709462,-1.0641526557\C,
 -1.2764204592,0.7773788108,-0.0586063422\H,-1.5320941406,1.1377222974,
 -1.0613954073\H,-2.0509365134,1.1622802308,0.6153343798\\Version=ES64L
 -G09RevD.01\HF=-234.6490635\RMSD=1.909e-09\RMSF=2.652e-05\ZeroPoint=0.
 1466547\Thermal=0.1516032\Dipole=-0.0856889,0.0000677,0.0383745\Dipole
 Deriv=0.017111,0.0077364,0.0445889,0.0400857,0.1798681,0.0216837,0.060
 241,0.0392839,0.1583089,-0.0091473,-0.0536775,-0.0074752,-0.012128,0.0
 178361,-0.0291104,-0.0180184,0.0493261,-0.1689807,0.0055122,0.0121692,
 0.0025438,0.0079344,-0.191064,-0.0152882,0.0019614,-0.0450624,0.048983
 7,0.0293974,0.0509892,-0.137383,0.0165085,0.0100324,0.0060345,-0.17581
 16,-0.0797063,-0.0984098,-0.0668035,0.0524723,0.0940997,0.0634826,-0.0
 212285,-0.0373775,0.1158104,-0.0355753,0.0620685,0.0294187,-0.0508883,
 -0.1374698,-0.0166217,0.0101519,-0.006279,-0.1757615,0.0797649,-0.0983
 807,0.0172143,-0.007965,0.0447061,-0.0401551,0.1798057,-0.0216701,0.06
 05088,-0.0395528,0.1582704,0.0055334,-0.0118984,0.0025371,-0.007775,-0
 .1910495,0.0154412,0.0019773,0.0452408,0.0489471,-0.0667381,-0.0525,0.
 0941795,-0.0634701,-0.0213208,0.0375186,0.1157518,0.0356895,0.0619991,
 -0.0092743,0.0536849,-0.0075886,0.0121205,0.0178315,0.0289422,-0.01816
 28,-0.0495446,-0.1689002,0.1435482,0.0200046,-0.036239,-0.0137609,0.05
 72788,0.0078071,-0.0040954,0.0246927,0.1566088,-0.1219,-0.0834537,0.07
 99313,-0.0431957,-0.0238133,0.0360179,0.1019208,0.0648703,-0.028851,0.
 0023266,-0.0006981,-0.0399837,-0.0161336,-0.0289569,-0.0418907,-0.0819
 404,-0.0777076,-0.1296631,0.1433443,-0.020052,-0.036067,0.0137213,0.05
 72965,-0.0078594,-0.0042667,-0.0245362,0.1567335,0.0019302,0.0010776,-
 0.040493,0.0166125,-0.0291088,0.0421081,-0.0824494,0.0777801,-0.129178
 5,-0.1214732,0.0829989,0.080113,0.0427747,-0.0235593,-0.0360781,0.1023
 348,-0.0649631,-0.0295558\Polar=58.86709,-0.0092933,69.304459,-5.03493
 54,-0.0079771,47.6160273\PG=C01 [X(C6H10)]\NImag=1\\0.42392222,0.02010
 473,0.59049923,-0.00321694,0.02982123,0.52996104,-0.04433443,-0.001727
 21,-0.02356214,0.05795914,-0.00274143,-0.05224529,-0.02005908,0.003712
 56,0.05315375,-0.02877422,-0.02318415,-0.28839745,0.02859676,0.0215028
 8,0.31575032,-0.04910701,0.00283178,0.00157964,-0.00006878,-0.00353100
 ,-0.00087926,0.05533798,0.00070938,-0.29735489,-0.05645252,-0.00001936
 ,-0.00231809,-0.00170060,-0.00178614,0.32217447,0.00097729,-0.05907456
 ,-0.06271798,0.00059836,-0.03332072,-0.00754028,-0.00123923,0.06089218
 ,0.06573144,-0.15006027,-0.04532386,0.04990936,-0.00003975,0.00123757,
 0.00415822,0.00095193,0.00163871,-0.00026920,0.48064290,-0.03892310,-0
 .11971725,0.02318049,-0.00163488,0.00047119,0.00327654,-0.02669498,-0.
 01366030,0.01852263,-0.06123296,0.83860210,0.05126859,0.02639893,-0.10
 033844,0.02657593,0.01662094,-0.01389441,-0.00774941,-0.00362774,0.002
 67828,-0.20048057,0.03317402,0.26020331,-0.00972179,0.01132092,0.00738
 990,-0.00178514,-0.00043085,0.00041836,0.00074369,-0.00017526,-0.00053
 424,-0.20110003,0.10751832,0.09900784,0.20772001,-0.01198372,0.0094780
 8,0.00635701,-0.00075459,-0.00026628,0.00110200,0.00032017,0.00106492,
 -0.00039492,0.10453514,-0.13242925,-0.06174102,-0.11468179,0.14025825,
 0.00900641,-0.00763891,-0.00062590,0.00033468,0.00055087,-0.00121627,-
 0.00042928,0.00054723,0.00063006,0.09972127,-0.06451588,-0.09344773,-0
 .10954275,0.06832694,0.08750335,0.00382186,-0.02719840,0.00097736,-0.0
 0105611,-0.00108024,0.00216959,-0.00424237,-0.00322315,0.00293985,-0.0
 9947215,-0.00193691,0.02520859,0.00392920,0.02650318,0.00082129,0.4804
 4620,-0.01680467,-0.02103552,0.01055599,0.00132751,-0.00180411,-0.0027
 5680,-0.00160970,0.00022705,0.00019115,0.00246162,-0.54465126,-0.00098
 564,-0.00166829,-0.01248948,0.00141089,0.06071834,0.83868203,0.0001861
 1,0.01746171,0.00311254,0.00120283,0.00073741,0.00059819,0.00319069,0.
 00134372,-0.00086977,0.02520904,0.00142665,-0.06905669,0.00095508,-0.0
 1593277,0.00461705,-0.20051668,-0.03381890,0.26028929,-0.00838137,-0.0
 0074481,-0.00078973,0.00144033,-0.00098525,-0.00083197,-0.00093490,0.0
 0013284,-0.00021015,0.00378900,0.01681949,0.00019770,0.00410871,-0.002
 28471,0.00445632,-0.15009790,0.03890013,0.05124395,0.42439713,0.000738
 60,0.00045299,-0.00202624,0.00054568,0.00062629,0.00022170,-0.00016584
 ,0.00088057,-0.00027636,0.02721244,-0.02101142,-0.01745056,-0.00045668
 ,-0.00487146,-0.00031640,0.04529759,-0.11967166,-0.02635603,-0.0201118
 1,0.59042715,-0.00077025,0.00202688,-0.00633136,0.00126860,0.00245273,
 0.00020872,-0.00014008,0.00016690,-0.00031474,0.00096951,-0.01054276,0
 .00313828,0.00450029,0.00177459,0.00950124,0.04990083,-0.02316835,-0.1
 0032946,-0.00299010,-0.02983029,0.52993787,-0.00093509,0.00016393,-0.0
 0013897,0.00013340,-0.00010415,-0.00005489,0.00016141,0.00000626,0.000
 00387,-0.00424424,0.00160866,0.00318952,0.00046189,0.00137888,0.000776
 54,0.00092439,0.02668807,-0.00777284,-0.04910509,-0.00256429,0.0015296
 6,0.05535359,-0.00013395,0.00088094,-0.00016781,-0.00001015,0.00010846
 ,0.00007626,-0.00000612,-0.00005221,-0.00002378,0.00322132,0.00023027,
 -0.00134154,-0.00020486,-0.00080352,-0.00020258,-0.00162377,-0.0136492
 7,0.00363390,-0.00045511,-0.29726385,0.05664279,0.00151864,0.32208145,
 -0.00020969,0.00027552,-0.00031443,-0.00000562,-0.00035598,0.00030369,
 0.00000364,0.00002391,0.00018167,0.00294043,-0.00019067,-0.00087072,0.
 00003617,-0.00084199,-0.00004342,-0.00025236,-0.01852825,0.00269846,0.
 00092651,0.05927504,-0.06280967,-0.00116822,-0.06110198,0.06582921,0.0
 0410063,0.00046931,0.00450520,-0.00090331,-0.00052009,0.00031211,0.000
 46332,0.00020609,0.00003534,0.00395805,0.00169015,0.00093345,-0.001103
 74,-0.00031125,-0.00378689,-0.20089333,-0.10751565,0.09902614,-0.00972
 303,-0.01133492,0.00739506,0.00074322,0.00017449,-0.00053578,0.2074941
 8,0.00229963,-0.00487113,-0.00175430,0.00004940,0.00001228,0.00018233,
 -0.00137775,-0.00080378,0.00084167,-0.02649047,-0.01250472,0.01594347,
 0.00030635,0.00075533,-0.00018994,-0.10452904,-0.13254626,0.06186631,0
 .01197432,0.00947926,-0.00635331,-0.00032018,0.00106470,0.00039517,0.1
 1466739,0.14038832,0.00444461,0.00033270,0.00950742,-0.00163619,-0.001
 19622,0.00057934,0.00077746,0.00020370,-0.00004358,0.00085028,-0.00138
 794,0.00459982,-0.00378742,0.00018105,-0.00514358,0.09972544,0.0646351
 4,-0.09354126,0.00899946,0.00764065,-0.00062777,-0.00042794,-0.0005482
 0,0.00063035,-0.10955822,-0.06847254,0.08760669,0.00143800,-0.00054416
 ,0.00127097,0.00022125,-0.00007400,-0.00024190,0.00013346,0.00001008,-
 0.00000535,-0.00105723,-0.00132431,0.00120764,-0.00090333,-0.00005219,
 -0.00163709,-0.00002443,0.00166937,0.02658201,-0.04435989,0.00172489,-
 0.02375438,-0.00007181,0.00002222,0.00056527,-0.00178337,0.00074996,0.
 00033109,0.05804942,0.00098715,0.00062626,-0.00245380,0.00007361,-0.00
 022106,0.00103340,0.00010396,0.00010880,0.00035610,0.00108360,-0.00180
 194,-0.00073546,0.00051960,0.00001390,0.00119540,-0.00123823,0.0004487
 8,-0.01661638,0.00273258,-0.05221045,0.01983247,0.00355628,-0.00228623
 ,0.03332034,0.00042931,-0.00026620,-0.00055094,-0.00370055,0.05310435,
 -0.00083567,-0.00022137,0.00020800,-0.00024239,-0.00103404,-0.00018375
 ,-0.00005483,-0.00007642,0.00030364,0.00216799,0.00276457,0.00059852,0
 .00031228,-0.00018133,0.00057927,0.00415958,-0.00329442,-0.01390154,-0
 .02899650,0.02295092,-0.28840749,-0.00089059,0.00169648,-0.00757090,0.
 00042040,-0.00110186,-0.00121404,0.02881822,-0.02125053,0.31574709,-0.
 14191995,0.02985138,-0.02751246,-0.00803926,0.00332471,-0.00246993,0.0
 0037514,-0.00018879,-0.00068615,-0.03330795,0.00226719,0.00088778,-0.0
 0190384,-0.00161280,-0.00066187,0.00158738,0.00379040,0.00232154,0.004
 54345,-0.02788874,0.00110615,-0.00515681,-0.00199503,-0.00211335,0.000
 50289,0.00053139,0.00029478,0.00028151,-0.00003851,-0.00048895,0.49951
 195,0.02103498,-0.09247281,0.00833894,-0.00264151,0.00105292,-0.000362
 34,0.03004437,-0.01091663,0.01054173,-0.00706033,0.01203646,-0.0090740
 9,-0.00134111,-0.00101677,0.00230293,0.00058089,-0.00437515,-0.0009330
 9,-0.01245494,-0.01538298,-0.00084211,-0.00038228,0.00084691,-0.000699
 62,0.00127466,-0.00027535,0.00099624,0.00177233,0.00071321,0.00043382,
 0.05407491,0.45416826,-0.02235568,0.01011867,-0.08237914,-0.03133440,0
 .01349483,-0.00831947,0.00599198,-0.00243550,0.00115652,0.01401628,-0.
 00738371,0.00387740,0.00235137,0.00173099,-0.00198876,0.00118370,0.001
 84233,0.00134458,0.00362507,-0.00833752,0.00007116,-0.00136382,-0.0003
 7263,0.00041850,-0.00049176,0.00005509,-0.00081987,-0.00042979,-0.0003
 0351,-0.00020950,-0.03262435,0.01036637,0.58707515,-0.02229066,-0.0102
 8988,0.01809569,0.00116809,-0.00093806,-0.00029065,0.00022490,0.000571
 64,0.00019391,-0.00391187,0.00387366,-0.00200117,-0.00113154,-0.000755
 09,0.00040284,-0.00001069,0.00026937,0.00019143,-0.00047757,-0.0000994
 3,-0.00038912,-0.00009567,-0.00010639,-0.00004071,0.00025757,-0.000142
 23,0.00026701,0.00025630,-0.00009383,-0.00014509,-0.17532690,-0.064538
 05,0.11266508,0.19229657,0.00999337,0.00520514,-0.00825412,-0.00060800
 ,0.00066666,-0.00019276,-0.00053698,0.00002279,-0.00031985,0.00176164,
 -0.00092452,0.00115376,0.00041640,0.00031109,-0.00035844,0.00097311,-0
 .00014694,-0.00025923,0.00093254,-0.00354349,0.00144263,-0.00121195,-0
 .00046776,-0.00052900,-0.00011158,0.00012097,-0.00005448,-0.00009298,0
 .00019265,-0.00018183,-0.06412837,-0.07880878,0.05469735,0.06576876,0.
 08854664,-0.00978364,-0.00379864,0.00573191,0.00010302,-0.00048953,0.0
 0127179,0.00060358,-0.00016925,-0.00007402,-0.00149650,0.00179755,0.00
 058245,-0.00037637,-0.00030599,0.00043175,0.00028124,-0.00059209,0.000
 03852,-0.00055233,-0.00051067,-0.00005552,-0.00003089,-0.00010238,-0.0
 0010995,0.00002143,-0.00002957,-0.00002408,0.00007063,0.00001370,-0.00
 012194,0.11429234,0.05512605,-0.15230461,-0.12308756,-0.05996329,0.160
 50464,-0.01001982,-0.00744577,-0.02965588,-0.00538286,0.00219916,-0.00
 161637,0.00140440,-0.00010710,0.00037972,0.00178221,0.00124403,-0.0012
 4503,-0.00001519,0.00003326,0.00004430,0.00048038,-0.00077277,0.000486
 50,-0.00053120,-0.00054095,0.00038458,-0.00018983,-0.00013320,-0.00002
 379,-0.00005801,-0.00005322,-0.00006544,0.00014137,0.00019628,0.000139
 53,-0.06222877,-0.02147025,-0.04958082,0.00659732,0.00823161,0.0230240
 9,0.06637567,0.00485243,0.00286744,0.01370648,0.00339255,-0.00022192,0
 .00096428,-0.00018651,0.00069547,0.00060421,-0.00092809,-0.00007000,0.
 00027230,-0.00006569,0.00006895,-0.00008663,0.00055633,-0.00004554,-0.
 00019037,0.00167119,-0.00341978,0.00020658,-0.00100569,-0.00045310,-0.
 00023414,-0.00010680,0.00008344,0.00008311,0.00002714,0.00008184,-0.00
 008614,-0.02118147,-0.07284118,-0.07804832,0.00326768,0.00383542,0.010
 43536,0.01710386,0.08683540,-0.00284638,-0.00118391,-0.00808233,-0.001
 80206,0.00100434,0.00107701,-0.00013904,0.00078036,0.00059090,0.000750
 71,0.00050229,0.00062247,-0.00019730,-0.00008161,0.00007384,0.00010241
 ,-0.00062097,-0.00006557,-0.00015313,0.00024472,0.00062197,-0.00009995
 ,-0.00002029,-0.00001642,-0.00006275,-0.00003460,-0.00002633,0.0002553
 9,0.00019978,0.00009181,-0.05099579,-0.07875720,-0.27168778,-0.0044886
 6,-0.00625628,-0.01947725,0.05859497,0.08093857,0.29180264,0.00450129,
 0.02788134,0.00114956,0.00029057,0.00003249,-0.00048862,-0.00515427,0.
 00198314,-0.00211656,0.00159741,-0.00378388,0.00232802,0.00050212,-0.0
 0053047,0.00029312,-0.03326572,-0.00231971,0.00092334,-0.14226808,-0.0
 3007189,-0.02753927,0.00039538,0.00019616,-0.00068932,-0.00190540,0.00
 161158,-0.00066489,-0.00810853,-0.00335286,-0.00246884,-0.07988828,0.0
 0434636,-0.00032977,0.00077704,-0.02066039,-0.00250819,0.00022617,-0.0
 0668584,0.00146077,0.49973803,0.01246080,-0.01534734,0.00086294,-0.001
 77039,0.00070942,-0.00043419,0.00037609,0.00084974,0.00069405,-0.00058
 751,-0.00437484,0.00093919,-0.00127465,-0.00027819,-0.00099710,0.00703
 547,0.01206484,0.00906506,-0.02122564,-0.09256224,-0.00837776,-0.03004
 943,-0.01095791,-0.01051726,0.00134143,-0.00101800,-0.00230570,0.00261
 034,0.00104886,0.00035564,-0.00422832,-0.16596538,-0.00395543,0.002451
 97,-0.01235269,-0.00194600,0.00082778,-0.01442824,0.00305486,-0.053812
 91,0.45415305,0.00360841,0.00842419,0.00009660,-0.00042512,0.00030657,
 -0.00020724,-0.00139121,0.00038554,0.00041322,0.00117857,-0.00182629,0
 .00133867,-0.00049273,-0.00005681,-0.00082054,0.01405040,0.00741082,0.
 00385893,-0.02232525,-0.01016036,-0.08229728,0.00598770,0.00244524,0.0
 0115308,0.00235808,-0.00173362,-0.00198825,-0.03132845,-0.01352776,-0.
 00828485,-0.00036301,0.00374436,-0.07869490,-0.00047885,0.01905750,0.0
 0112486,-0.00082514,-0.02776144,0.00131189,-0.03229817,-0.01045437,0.5
 8721930,-0.00053718,0.00054721,0.00038612,0.00014224,-0.00019591,0.000
 13971,-0.00019163,0.00013418,-0.00002523,0.00047877,0.00077760,0.00048
 039,-0.00005810,0.00005321,-0.00006532,0.00178195,-0.00124539,-0.00124
 052,-0.01009124,0.00747600,-0.02963301,0.00140600,0.00010715,0.0003763
 4,-0.00001604,-0.00003289,0.00004560,-0.00537835,-0.00220056,-0.001607
 73,0.00022887,-0.00080014,-0.00085600,-0.00009114,-0.00039332,-0.00011
 041,0.00150237,-0.00027754,0.00006494,-0.06254644,0.02177117,-0.050165
 22,0.06671211,-0.00167361,-0.00345267,-0.00021593,-0.00002934,0.000082
 64,0.00008679,0.00101554,-0.00045552,0.00023768,-0.00055945,-0.0000451
 5,0.00019529,0.00010687,0.00008342,-0.00008251,0.00092433,-0.00007502,
 -0.00027933,-0.00490455,0.00287781,-0.01371719,0.00017843,0.00070295,-
 0.00060782,0.00006517,0.00006944,0.00008574,-0.00339970,-0.00022561,-0
 .00096602,0.00681170,-0.01445604,0.02770425,0.00042955,-0.00363674,0.0
 0038238,0.00028182,0.00067739,0.00040963,0.02149664,-0.07307932,0.0783
 1767,-0.01746194,0.08710111,-0.00015127,-0.00025468,0.00062241,0.00025
 660,-0.00019985,0.00009280,-0.00009742,0.00001799,-0.00001536,0.000097
 30,0.00061438,-0.00006657,-0.00006137,0.00003428,-0.00002504,0.0007425
 2,-0.00049497,0.00061539,-0.00284839,0.00117641,-0.00802625,-0.0001394
 6,-0.00078151,0.00059700,-0.00019681,0.00008116,0.00007351,-0.00179673
 ,-0.00100008,0.00108194,0.00148317,-0.00308641,0.00136317,-0.00044309,
 0.00017466,0.00071632,0.00006724,-0.00041286,0.00244009,-0.05159631,0.
 07901076,-0.27113684,0.05925213,-0.08119682,0.29120233,-0.00047643,0.0
 0010348,-0.00038770,0.00025463,0.00009447,-0.00014694,-0.00009727,0.00
 010748,-0.00004223,-0.00000676,-0.00026808,0.00019072,0.00025710,0.000
 14277,0.00026643,-0.00390866,-0.00388864,-0.00198860,-0.02230836,0.010
 23935,0.01816151,0.00021926,-0.00057140,0.00019048,-0.00113363,0.00075
 576,0.00040439,0.00116564,0.00094219,-0.00028738,0.00074057,-0.0024399
 1,-0.00046709,0.00175826,-0.00033388,-0.00045044,-0.00008420,-0.000433
 55,-0.00044413,-0.17489128,0.06407382,0.11290999,0.00665783,-0.0032814
 7,-0.00456810,0.19185330,-0.00092058,-0.00351316,-0.00143926,0.0000941
 1,0.00019316,0.00018465,0.00120313,-0.00046240,0.00052879,-0.00096939,
 -0.00014935,0.00025816,0.00011071,0.00012101,0.00005413,-0.00175948,-0
 .00093247,-0.00114864,-0.00999628,0.00519328,0.00828619,0.00053882,0.0
 0001815,0.00031671,-0.00041770,0.00031171,0.00035769,0.00060157,0.0006
 7283,0.00019251,0.02061034,-0.01230669,-0.01917326,0.00033033,0.000979
 56,0.00015237,0.00040546,-0.00366560,-0.00017967,0.06367023,-0.0784617
 8,-0.05457122,-0.00825883,0.00383130,0.00631753,-0.06524242,0.08817044
 ,-0.00054768,0.00049640,-0.00005289,0.00007114,-0.00001515,-0.00012298
 ,-0.00002724,0.00010051,-0.00011001,0.00027732,0.00058813,0.00003536,0
 .00002090,0.00002957,-0.00002532,-0.00149375,-0.00178594,0.00059134,-0
 .00975147,0.00375497,0.00572030,0.00060028,0.00016803,-0.00007644,-0.0
 0037499,0.00030455,0.00043162,0.00009246,0.00048728,0.00128374,-0.0024
 6991,0.00190443,0.00109755,-0.00045106,-0.00015661,0.00176514,-0.00010
 845,-0.00039098,0.00072306,0.11454514,-0.05499469,-0.15308667,0.022958
 22,-0.01035381,-0.01953489,-0.12334090,0.05986331,0.16136109\\0.000086
 56,-0.00004536,0.00002926,0.00001300,0.,0.00000132,0.00000896,-0.00000
 119,-0.00000034,0.00001982,0.00002910,0.00000178,-0.00000146,-0.000008
 51,0.00000398,-0.00000296,-0.00004262,-0.00000429,-0.00005299,-0.00001
 787,-0.00001318,-0.00001218,-0.00000850,-0.00000784,-0.00000097,0.0000
 0573,0.00000519,-0.00001106,-0.00000259,-0.00000371,-0.00009246,-0.000
 00029,-0.00002884,-0.00000211,0.00000736,-0.00000071,-0.00000850,0.000
 01649,-0.00000582,0.00002779,0.00006974,0.00001567,0.00001424,-0.00000
 124,0.00000307,0.00001431,-0.00000028,0.00000446\\\@


 A MAN IS NEVER SO BRILLIANT AS WHEN HE TAKES THE WORDS RIGHT OUT
 OF YOUR MOUTH. -- ARNOT SHEPPARD, JR.
 Job cpu time:       0 days  0 hours  2 minutes 28.7 seconds.
 File lengths (MBytes):  RWF=     26 Int=      0 D2E=      0 Chk=      2 Scr=      1
 Normal termination of Gaussian 09 at Sun May 12 21:02:06 2019.
