 Entering Gaussian System, Link 0=g09
 Input=r.gjf
 Output=r.log
 Initial command:
 /mnt/e/g09/l1.exe "/mnt/e/scratch/Gau-7890.inp" -scrdir="/mnt/e/scratch/"
 Entering Link 1 = /mnt/e/g09/l1.exe PID=      7892.
  
 Copyright (c) 1988,1990,1992,1993,1995,1998,2003,2009,2013,
            Gaussian, Inc.  All Rights Reserved.
  
 This is part of the Gaussian(R) 09 program.  It is based on
 the Gaussian(R) 03 system (copyright 2003, Gaussian, Inc.),
 the Gaussian(R) 98 system (copyright 1998, Gaussian, Inc.),
 the Gaussian(R) 94 system (copyright 1995, Gaussian, Inc.),
 the Gaussian 92(TM) system (copyright 1992, Gaussian, Inc.),
 the Gaussian 90(TM) system (copyright 1990, Gaussian, Inc.),
 the Gaussian 88(TM) system (copyright 1988, Gaussian, Inc.),
 the Gaussian 86(TM) system (copyright 1986, Carnegie Mellon
 University), and the Gaussian 82(TM) system (copyright 1983,
 Carnegie Mellon University). Gaussian is a federally registered
 trademark of Gaussian, Inc.
  
 This software contains proprietary and confidential information,
 including trade secrets, belonging to Gaussian, Inc.
  
 This software is provided under written license and may be
 used, copied, transmitted, or stored only in accord with that
 written license.
  
 The following legend is applicable only to US Government
 contracts under FAR:
  
                    RESTRICTED RIGHTS LEGEND
  
 Use, reproduction and disclosure by the US Government is
 subject to restrictions as set forth in subparagraphs (a)
 and (c) of the Commercial Computer Software - Restricted
 Rights clause in FAR 52.227-19.
  
 Gaussian, Inc.
 340 Quinnipiac St., Bldg. 40, Wallingford CT 06492
  
  
 ---------------------------------------------------------------
 Warning -- This program may not be used in any manner that
 competes with the business of Gaussian, Inc. or will provide
 assistance to any competitor of Gaussian, Inc.  The licensee
 of this program is prohibited from giving any competitor of
 Gaussian, Inc. access to this program.  By using this program,
 the user acknowledges that Gaussian, Inc. is engaged in the
 business of creating and licensing software in the field of
 computational chemistry and represents and warrants to the
 licensee that it is not a competitor of Gaussian, Inc. and that
 it will not use this program in any manner prohibited above.
 ---------------------------------------------------------------
  

 Cite this work as:
 Gaussian 09, Revision D.01,
 M. J. Frisch, G. W. Trucks, H. B. Schlegel, G. E. Scuseria, 
 M. A. Robb, J. R. Cheeseman, G. Scalmani, V. Barone, B. Mennucci, 
 G. A. Petersson, H. Nakatsuji, M. Caricato, X. Li, H. P. Hratchian, 
 A. F. Izmaylov, J. Bloino, G. Zheng, J. L. Sonnenberg, M. Hada, 
 M. Ehara, K. Toyota, R. Fukuda, J. Hasegawa, M. Ishida, T. Nakajima, 
 Y. Honda, O. Kitao, H. Nakai, T. Vreven, J. A. Montgomery, Jr., 
 J. E. Peralta, F. Ogliaro, M. Bearpark, J. J. Heyd, E. Brothers, 
 K. N. Kudin, V. N. Staroverov, T. Keith, R. Kobayashi, J. Normand, 
 K. Raghavachari, A. Rendell, J. C. Burant, S. S. Iyengar, J. Tomasi, 
 M. Cossi, N. Rega, J. M. Millam, M. Klene, J. E. Knox, J. B. Cross, 
 V. Bakken, C. Adamo, J. Jaramillo, R. Gomperts, R. E. Stratmann, 
 O. Yazyev, A. J. Austin, R. Cammi, C. Pomelli, J. W. Ochterski, 
 R. L. Martin, K. Morokuma, V. G. Zakrzewski, G. A. Voth, 
 P. Salvador, J. J. Dannenberg, S. Dapprich, A. D. Daniels, 
 O. Farkas, J. B. Foresman, J. V. Ortiz, J. Cioslowski, 
 and D. J. Fox, Gaussian, Inc., Wallingford CT, 2013.
 
 ******************************************
 Gaussian 09:  ES64L-G09RevD.01 24-Apr-2013
                12-May-2019 
 ******************************************
 %nproc=8
 Will use up to    8 processors via shared memory.
 %mem=2000mw
 --------------------------------------
 #p B3LYP/6-31G* em=gd3 opt freq nosymm
 --------------------------------------
 1/14=-1,18=20,19=15,26=3,38=1/1,3;
 2/9=110,12=2,15=1,17=6,18=5,40=1/2;
 3/5=1,6=6,7=1,11=2,16=1,25=1,30=1,71=1,74=-5,124=31/1,2,3;
 4//1;
 5/5=2,38=5/2;
 6/7=2,8=2,9=2,10=2,28=1/1;
 7/30=1/1,2,3,16;
 1/14=-1,18=20,19=15,26=3/3(2);
 2/9=110,15=1/2;
 99//99;
 2/9=110,15=1/2;
 3/5=1,6=6,7=1,11=2,16=1,25=1,30=1,71=1,74=-5,124=31/1,2,3;
 4/5=5,16=3,69=1/1;
 5/5=2,38=5/2;
 7/30=1/1,2,3,16;
 1/14=-1,18=20,19=15,26=3/3(-5);
 2/9=110,15=1/2;
 6/7=2,8=2,9=2,10=2,19=2,28=1/1;
 99/9=1/99;
 Leave Link    1 at Sun May 12 20:58:08 2019, MaxMem=  2097152000 cpu:         1.0
 (Enter /mnt/e/g09/l101.exe)
 -----
 Title
 -----
 Symbolic Z-matrix:
 Charge =  0 Multiplicity = 1
 6                     0.56473  -1.49014   0.54599 
 1                     0.07926  -1.08791   1.42682 
 1                     0.51574  -2.56869   0.428 
 6                     1.30359  -0.72369  -0.28264 
 1                     1.83581  -1.20834  -1.10021 
 6                     1.30307   0.72433  -0.28345 
 6                     0.56403   1.49118   0.54463 
 1                     0.51414   2.56955   0.42539 
 1                     1.83469   1.20843  -1.10175 
 1                     0.07926   1.08959   1.42614 
 6                    -1.76614  -0.67088  -0.27734 
 1                    -2.13738  -1.24694   0.56583 
 1                    -1.48958  -1.23949  -1.15807 
 6                    -1.76766   0.66927  -0.27486 
 1                    -1.49271   1.24176  -1.15355 
 1                    -2.13983   1.2413    0.57064 
 
 Add virtual bond connecting atoms H12        and H2         Dist= 4.50D+00.
 Add virtual bond connecting atoms H16        and H10        Dist= 4.50D+00.
 NAtoms=     16 NQM=       16 NQMF=       0 NMMI=      0 NMMIF=      0
                NMic=       0 NMicF=      0.
                    Isotopes and Nuclear Properties:
 (Nuclear quadrupole moments (NQMom) in fm**2, nuclear magnetic moments (NMagM)
  in nuclear magnetons)

  Atom         1           2           3           4           5           6           7           8           9          10
 IAtWgt=          12           1           1          12           1          12          12           1           1           1
 AtmWgt=  12.0000000   1.0078250   1.0078250  12.0000000   1.0078250  12.0000000  12.0000000   1.0078250   1.0078250   1.0078250
 NucSpn=           0           1           1           0           1           0           0           1           1           1
 AtZEff=   0.0000000   0.0000000   0.0000000   0.0000000   0.0000000   0.0000000   0.0000000   0.0000000   0.0000000   0.0000000
 NQMom=    0.0000000   0.0000000   0.0000000   0.0000000   0.0000000   0.0000000   0.0000000   0.0000000   0.0000000   0.0000000
 NMagM=    0.0000000   2.7928460   2.7928460   0.0000000   2.7928460   0.0000000   0.0000000   2.7928460   2.7928460   2.7928460
 AtZNuc=   6.0000000   1.0000000   1.0000000   6.0000000   1.0000000   6.0000000   6.0000000   1.0000000   1.0000000   1.0000000

  Atom        11          12          13          14          15          16
 IAtWgt=          12           1           1          12           1           1
 AtmWgt=  12.0000000   1.0078250   1.0078250  12.0000000   1.0078250   1.0078250
 NucSpn=           0           1           1           0           1           1
 AtZEff=   0.0000000   0.0000000   0.0000000   0.0000000   0.0000000   0.0000000
 NQMom=    0.0000000   0.0000000   0.0000000   0.0000000   0.0000000   0.0000000
 NMagM=    0.0000000   2.7928460   2.7928460   0.0000000   2.7928460   2.7928460
 AtZNuc=   6.0000000   1.0000000   1.0000000   6.0000000   1.0000000   1.0000000
 Leave Link  101 at Sun May 12 20:58:09 2019, MaxMem=  2097152000 cpu:         5.4
 (Enter /mnt/e/g09/l103.exe)

 GradGradGradGradGradGradGradGradGradGradGradGradGradGradGradGradGradGrad
 Berny optimization.
 Initialization pass.
                           ----------------------------
                           !    Initial Parameters    !
                           ! (Angstroms and Degrees)  !
 --------------------------                            --------------------------
 ! Name  Definition              Value          Derivative Info.                !
 --------------------------------------------------------------------------------
 ! R1    R(1,2)                  1.0832         estimate D2E/DX2                !
 ! R2    R(1,3)                  1.0861         estimate D2E/DX2                !
 ! R3    R(1,4)                  1.3491         estimate D2E/DX2                !
 ! R4    R(2,12)                 2.3833         estimate D2E/DX2                !
 ! R5    R(4,5)                  1.0893         estimate D2E/DX2                !
 ! R6    R(4,6)                  1.448          estimate D2E/DX2                !
 ! R7    R(6,7)                  1.3491         estimate D2E/DX2                !
 ! R8    R(6,9)                  1.0893         estimate D2E/DX2                !
 ! R9    R(7,8)                  1.0861         estimate D2E/DX2                !
 ! R10   R(7,10)                 1.0832         estimate D2E/DX2                !
 ! R11   R(10,16)                2.3831         estimate D2E/DX2                !
 ! R12   R(11,12)                1.0865         estimate D2E/DX2                !
 ! R13   R(11,13)                1.0842         estimate D2E/DX2                !
 ! R14   R(11,14)                1.3402         estimate D2E/DX2                !
 ! R15   R(14,15)                1.0842         estimate D2E/DX2                !
 ! R16   R(14,16)                1.0866         estimate D2E/DX2                !
 ! A1    A(2,1,3)              115.9054         estimate D2E/DX2                !
 ! A2    A(2,1,4)              122.2736         estimate D2E/DX2                !
 ! A3    A(3,1,4)              121.4771         estimate D2E/DX2                !
 ! A4    A(1,2,12)              95.6412         estimate D2E/DX2                !
 ! A5    A(1,4,5)              118.413          estimate D2E/DX2                !
 ! A6    A(1,4,6)              124.6303         estimate D2E/DX2                !
 ! A7    A(5,4,6)              116.4027         estimate D2E/DX2                !
 ! A8    A(4,6,7)              124.6309         estimate D2E/DX2                !
 ! A9    A(4,6,9)              116.4015         estimate D2E/DX2                !
 ! A10   A(7,6,9)              118.4143         estimate D2E/DX2                !
 ! A11   A(6,7,8)              121.4777         estimate D2E/DX2                !
 ! A12   A(6,7,10)             122.2728         estimate D2E/DX2                !
 ! A13   A(8,7,10)             115.906          estimate D2E/DX2                !
 ! A14   A(7,10,16)             95.7964         estimate D2E/DX2                !
 ! A15   A(12,11,13)           116.071          estimate D2E/DX2                !
 ! A16   A(12,11,14)           121.8936         estimate D2E/DX2                !
 ! A17   A(13,11,14)           121.7517         estimate D2E/DX2                !
 ! A18   A(2,12,11)             85.8246         estimate D2E/DX2                !
 ! A19   A(11,14,15)           121.7528         estimate D2E/DX2                !
 ! A20   A(11,14,16)           121.8899         estimate D2E/DX2                !
 ! A21   A(15,14,16)           116.074          estimate D2E/DX2                !
 ! A22   A(10,16,14)            85.8066         estimate D2E/DX2                !
 ! D1    D(3,1,2,12)           -77.719          estimate D2E/DX2                !
 ! D2    D(4,1,2,12)           108.9262         estimate D2E/DX2                !
 ! D3    D(2,1,4,5)            174.6698         estimate D2E/DX2                !
 ! D4    D(2,1,4,6)            -14.1926         estimate D2E/DX2                !
 ! D5    D(3,1,4,5)              1.6804         estimate D2E/DX2                !
 ! D6    D(3,1,4,6)            172.818          estimate D2E/DX2                !
 ! D7    D(1,2,12,11)          -54.2322         estimate D2E/DX2                !
 ! D8    D(1,4,6,7)              0.0246         estimate D2E/DX2                !
 ! D9    D(1,4,6,9)           -171.2799         estimate D2E/DX2                !
 ! D10   D(5,4,6,7)            171.3233         estimate D2E/DX2                !
 ! D11   D(5,4,6,9)              0.0188         estimate D2E/DX2                !
 ! D12   D(4,6,7,8)           -172.8112         estimate D2E/DX2                !
 ! D13   D(4,6,7,10)            14.1952         estimate D2E/DX2                !
 ! D14   D(9,6,7,8)             -1.6679         estimate D2E/DX2                !
 ! D15   D(9,6,7,10)          -174.6615         estimate D2E/DX2                !
 ! D16   D(6,7,10,16)         -108.8675         estimate D2E/DX2                !
 ! D17   D(8,7,10,16)           77.7737         estimate D2E/DX2                !
 ! D18   D(7,10,16,14)          53.9454         estimate D2E/DX2                !
 ! D19   D(13,11,12,2)          97.905          estimate D2E/DX2                !
 ! D20   D(14,11,12,2)         -88.1137         estimate D2E/DX2                !
 ! D21   D(12,11,14,15)       -173.6206         estimate D2E/DX2                !
 ! D22   D(12,11,14,16)          0.0257         estimate D2E/DX2                !
 ! D23   D(13,11,14,15)          0.0202         estimate D2E/DX2                !
 ! D24   D(13,11,14,16)        173.6665         estimate D2E/DX2                !
 ! D25   D(11,14,16,10)         88.28           estimate D2E/DX2                !
 ! D26   D(15,14,16,10)        -97.7336         estimate D2E/DX2                !
 --------------------------------------------------------------------------------
 Trust Radius=3.00D-01 FncErr=1.00D-07 GrdErr=1.00D-06
 Number of steps in this run=     74 maximum allowed number of steps=    100.
 GradGradGradGradGradGradGradGradGradGradGradGradGradGradGradGradGradGrad

 Leave Link  103 at Sun May 12 20:58:09 2019, MaxMem=  2097152000 cpu:         0.0
 (Enter /mnt/e/g09/l202.exe)
                          Input orientation:                          
 ---------------------------------------------------------------------
 Center     Atomic      Atomic             Coordinates (Angstroms)
 Number     Number       Type             X           Y           Z
 ---------------------------------------------------------------------
      1          6           0        0.564727   -1.490136    0.545994
      2          1           0        0.079260   -1.087908    1.426816
      3          1           0        0.515741   -2.568687    0.427998
      4          6           0        1.303587   -0.723688   -0.282637
      5          1           0        1.835813   -1.208344   -1.100213
      6          6           0        1.303070    0.724327   -0.283446
      7          6           0        0.564030    1.491178    0.544633
      8          1           0        0.514137    2.569548    0.425387
      9          1           0        1.834687    1.208428   -1.101746
     10          1           0        0.079264    1.089594    1.426135
     11          6           0       -1.766141   -0.670884   -0.277337
     12          1           0       -2.137376   -1.246936    0.565834
     13          1           0       -1.489581   -1.239491   -1.158067
     14          6           0       -1.767658    0.669265   -0.274858
     15          1           0       -1.492706    1.241762   -1.153554
     16          1           0       -2.139831    1.241298    0.570644
 ---------------------------------------------------------------------
                    Distance matrix (angstroms):
                    1          2          3          4          5
     1  C    0.000000
     2  H    1.083196   0.000000
     3  H    1.086092   1.838711   0.000000
     4  C    1.349069   2.133978   2.128315   0.000000
     5  H    2.098824   3.079912   2.434862   1.089305   0.000000
     6  C    2.477290   2.776131   3.459766   1.448015   2.164750
     7  C    2.981314   2.768562   4.061827   2.477287   3.407399
     8  H    4.061790   3.816931   5.138236   3.459759   4.283311
     9  H    3.407359   3.840353   4.283262   2.164735   2.416773
    10  H    2.768633   2.177502   3.817042   2.776123   3.840367
    11  C    2.604226   2.546282   3.050597   3.070187   3.733639
    12  H    2.713098   2.383287   2.967331   3.582446   4.308530
    13  H    2.680826   3.027517   2.881611   2.972241   3.326043
    14  C    3.282808   3.065038   4.023960   3.372377   4.146279
    15  H    3.819000   3.815331   4.588539   3.527144   4.133389
    16  H    3.843953   3.329053   4.646331   4.055414   4.959663
                    6          7          8          9         10
     6  C    0.000000
     7  C    1.349057   0.000000
     8  H    2.128309   1.086090   0.000000
     9  H    1.089305   2.098828   2.434879   0.000000
    10  H    2.133961   1.083196   1.838716   3.079905   0.000000
    11  C    3.371455   3.283267   4.024163   4.144566   3.067021
    12  H    4.055098   3.846467   4.649279   4.958520   3.333614
    13  H    3.524265   3.817468   4.585956   4.128709   3.816282
    14  C    3.071234   2.604587   3.050903   3.735148   2.545815
    15  H    2.973414   2.678845   2.878105   3.327963   3.024738
    16  H    3.584731   2.715507   2.971345   4.312164   2.383120
                   11         12         13         14         15
    11  C    0.000000
    12  H    1.086549   0.000000
    13  H    1.084198   1.841610   0.000000
    14  C    1.340152   2.124919   2.121493   0.000000
    15  H    2.121494   3.092816   2.481259   1.084185   0.000000
    16  H    2.124890   2.488240   3.092827   1.086558   1.841638
                   16
    16  H    0.000000
 Symmetry turned off by external request.
 Stoichiometry    C6H10
 Framework group  C1[X(C6H10)]
 Deg. of freedom    42
 Full point group                 C1      NOp   1
 Rotational constants (GHZ):      4.1360277      3.0532776      2.0508827
 Leave Link  202 at Sun May 12 20:58:09 2019, MaxMem=  2097152000 cpu:         0.0
 (Enter /mnt/e/g09/l301.exe)
 Standard basis: 6-31G(d) (6D, 7F)
 Ernie: Thresh=  0.10000D-02 Tol=  0.10000D-05 Strict=F.
   110 basis functions,   208 primitive gaussians,   110 cartesian basis functions
    23 alpha electrons       23 beta electrons
       nuclear repulsion energy       218.7309362906 Hartrees.
 IExCor=  402 DFT=T Ex+Corr=B3LYP ExCW=0 ScaHFX=  0.200000
 ScaDFX=  0.800000  0.720000  1.000000  0.810000 ScalE2=  1.000000  1.000000
 IRadAn=      0 IRanWt=     -1 IRanGd=            0 ICorTp=0 IEmpDi=131
 NAtoms=   16 NActive=   16 NUniq=   16 SFac= 1.00D+00 NAtFMM=   60 NAOKFM=F Big=F
 Integral buffers will be    131072 words long.
 Raffenetti 2 integral format.
 Two-electron integral symmetry is turned off.
 R6Disp:  Grimme-D3 Dispersion energy=       -0.0123965316 Hartrees.
 Nuclear repulsion after empirical dispersion term =      218.7185397590 Hartrees.
 Leave Link  301 at Sun May 12 20:58:09 2019, MaxMem=  2097152000 cpu:         0.1
 (Enter /mnt/e/g09/l302.exe)
 NPDir=0 NMtPBC=     1 NCelOv=     1 NCel=       1 NClECP=     1 NCelD=      1
         NCelK=      1 NCelE2=     1 NClLst=     1 CellRange=     0.0.
 One-electron integrals computed using PRISM.
 NBasis=   110 RedAO= T EigKep=  2.46D-03  NBF=   110
 NBsUse=   110 1.00D-06 EigRej= -1.00D+00 NBFU=   110
 Precomputing XC quadrature grid using
 IXCGrd= 4 IRadAn=           0 IRanWt=          -1 IRanGd=           0 AccXCQ= 0.00D+00.
 Generated NRdTot=       0 NPtTot=           0 NUsed=           0 NTot=          32
 NSgBfM=   110   110   110   110   110 MxSgAt=    16 MxSgA2=    16.
 Leave Link  302 at Sun May 12 20:58:09 2019, MaxMem=  2097152000 cpu:         0.6
 (Enter /mnt/e/g09/l303.exe)
 DipDrv:  MaxL=1.
 Leave Link  303 at Sun May 12 20:58:09 2019, MaxMem=  2097152000 cpu:         0.1
 (Enter /mnt/e/g09/l401.exe)
 ExpMin= 1.61D-01 ExpMax= 3.05D+03 ExpMxC= 4.57D+02 IAcc=1 IRadAn=         1 AccDes= 0.00D+00
 Harris functional with IExCor=  402 and IRadAn=       1 diagonalized for initial guess.
 HarFok:  IExCor=  402 AccDes= 0.00D+00 IRadAn=         1 IDoV= 1 UseB2=F ITyADJ=14
 ICtDFT=  3500011 ScaDFX=  1.000000  1.000000  1.000000  1.000000
 FoFCou: FMM=F IPFlag=           0 FMFlag=      100000 FMFlg1=           0
         NFxFlg=           0 DoJE=T BraDBF=F KetDBF=T FulRan=T
         wScrn=  0.000000 ICntrl=     500 IOpCl=  0 I1Cent=   200000004 NGrid=           0
         NMat0=    1 NMatS0=      1 NMatT0=    0 NMatD0=    1 NMtDS0=    0 NMtDT0=    0
 Symmetry not used in FoFCou.
 Harris En= -234.648020279056    
 JPrj=0 DoOrth=F DoCkMO=F.
 Leave Link  401 at Sun May 12 20:58:09 2019, MaxMem=  2097152000 cpu:         1.0
 (Enter /mnt/e/g09/l502.exe)
 Closed shell SCF:
 Using DIIS extrapolation, IDIIS=  1040.
 Two-electron integral symmetry not used.
 Keep R1 ints in memory in canonical form, NReq=19626885.
 IVT=       56422 IEndB=       56422 NGot=  2097152000 MDV=  2078457014
 LenX=  2078457014 LenY=  2078444473
 Requested convergence on RMS density matrix=1.00D-08 within 128 cycles.
 Requested convergence on MAX density matrix=1.00D-06.
 Requested convergence on             energy=1.00D-06.
 No special actions if energy rises.
 FoFCou: FMM=F IPFlag=           0 FMFlag=           0 FMFlg1=           0
         NFxFlg=           0 DoJE=F BraDBF=F KetDBF=F FulRan=T
         wScrn=  0.000000 ICntrl=     600 IOpCl=  0 I1Cent=           0 NGrid=           0
         NMat0=    1 NMatS0=   6105 NMatT0=    0 NMatD0=    1 NMtDS0=    0 NMtDT0=    0
 Symmetry not used in FoFCou.
 Integral accuracy reduced to 1.0D-05 until final iterations.

 Cycle   1  Pass 0  IDiag  1:
 E= -234.345236508209    
 DIIS: error= 4.69D-02 at cycle   1 NSaved=   1.
 NSaved= 1 IEnMin= 1 EnMin= -234.345236508209     IErMin= 1 ErrMin= 4.69D-02
 ErrMax= 4.69D-02  0.00D+00 EMaxC= 1.00D-01 BMatC= 1.95D-01 BMatP= 1.95D-01
 IDIUse=3 WtCom= 5.31D-01 WtEn= 4.69D-01
 Coeff-Com:  0.100D+01
 Coeff-En:   0.100D+01
 Coeff:      0.100D+01
 Gap=     0.198 Goal=   None    Shift=    0.000
 GapD=    0.198 DampG=1.000 DampE=0.500 DampFc=0.5000 IDamp=-1.
 Damping current iteration by 5.00D-01
 RMSDP=8.91D-03 MaxDP=1.24D-01              OVMax= 1.69D-01

 Cycle   2  Pass 0  IDiag  1:
 E= -234.452015030696     Delta-E=       -0.106778522487 Rises=F Damp=T
 DIIS: error= 7.47D-03 at cycle   2 NSaved=   2.
 NSaved= 2 IEnMin= 2 EnMin= -234.452015030696     IErMin= 2 ErrMin= 7.47D-03
 ErrMax= 7.47D-03  0.00D+00 EMaxC= 1.00D-01 BMatC= 6.57D-03 BMatP= 1.95D-01
 IDIUse=3 WtCom= 9.25D-01 WtEn= 7.47D-02
 Coeff-Com:  0.208D-01 0.979D+00
 Coeff-En:   0.243D-01 0.976D+00
 Coeff:      0.211D-01 0.979D+00
 Gap=     0.218 Goal=   None    Shift=    0.000
 RMSDP=1.46D-03 MaxDP=1.74D-02 DE=-1.07D-01 OVMax= 8.96D-02

 Cycle   3  Pass 0  IDiag  1:
 E= -234.567828878380     Delta-E=       -0.115813847684 Rises=F Damp=F
 DIIS: error= 2.05D-03 at cycle   3 NSaved=   3.
 NSaved= 3 IEnMin= 3 EnMin= -234.567828878380     IErMin= 3 ErrMin= 2.05D-03
 ErrMax= 2.05D-03  0.00D+00 EMaxC= 1.00D-01 BMatC= 5.12D-04 BMatP= 6.57D-03
 IDIUse=3 WtCom= 9.80D-01 WtEn= 2.05D-02
 Coeff-Com: -0.169D-01 0.154D+00 0.863D+00
 Coeff-En:   0.000D+00 0.000D+00 0.100D+01
 Coeff:     -0.166D-01 0.151D+00 0.866D+00
 Gap=     0.200 Goal=   None    Shift=    0.000
 RMSDP=3.73D-04 MaxDP=3.05D-03 DE=-1.16D-01 OVMax= 9.24D-03

 Cycle   4  Pass 0  IDiag  1:
 E= -234.568213960029     Delta-E=       -0.000385081648 Rises=F Damp=F
 DIIS: error= 9.94D-04 at cycle   4 NSaved=   4.
 NSaved= 4 IEnMin= 4 EnMin= -234.568213960029     IErMin= 4 ErrMin= 9.94D-04
 ErrMax= 9.94D-04  0.00D+00 EMaxC= 1.00D-01 BMatC= 1.25D-04 BMatP= 5.12D-04
 IDIUse=3 WtCom= 9.90D-01 WtEn= 9.94D-03
 Coeff-Com: -0.665D-02 0.277D-01 0.356D+00 0.622D+00
 Coeff-En:   0.000D+00 0.000D+00 0.116D+00 0.884D+00
 Coeff:     -0.658D-02 0.275D-01 0.354D+00 0.625D+00
 Gap=     0.200 Goal=   None    Shift=    0.000
 RMSDP=1.66D-04 MaxDP=2.64D-03 DE=-3.85D-04 OVMax= 6.63D-03

 Cycle   5  Pass 0  IDiag  1:
 E= -234.568311228168     Delta-E=       -0.000097268139 Rises=F Damp=F
 DIIS: error= 6.15D-04 at cycle   5 NSaved=   5.
 NSaved= 5 IEnMin= 5 EnMin= -234.568311228168     IErMin= 5 ErrMin= 6.15D-04
 ErrMax= 6.15D-04  0.00D+00 EMaxC= 1.00D-01 BMatC= 4.30D-05 BMatP= 1.25D-04
 IDIUse=3 WtCom= 9.94D-01 WtEn= 6.15D-03
 Coeff-Com: -0.315D-02 0.809D-02 0.172D+00 0.409D+00 0.414D+00
 Coeff-En:   0.000D+00 0.000D+00 0.000D+00 0.243D+00 0.757D+00
 Coeff:     -0.313D-02 0.804D-02 0.171D+00 0.408D+00 0.416D+00
 Gap=     0.200 Goal=   None    Shift=    0.000
 RMSDP=6.14D-05 MaxDP=1.12D-03 DE=-9.73D-05 OVMax= 2.70D-03

 Cycle   6  Pass 0  IDiag  1:
 E= -234.568357982806     Delta-E=       -0.000046754639 Rises=F Damp=F
 DIIS: error= 8.25D-05 at cycle   6 NSaved=   6.
 NSaved= 6 IEnMin= 6 EnMin= -234.568357982806     IErMin= 6 ErrMin= 8.25D-05
 ErrMax= 8.25D-05  0.00D+00 EMaxC= 1.00D-01 BMatC= 7.81D-07 BMatP= 4.30D-05
 IDIUse=1 WtCom= 1.00D+00 WtEn= 0.00D+00
 Coeff-Com: -0.104D-02 0.191D-02 0.594D-01 0.158D+00 0.192D+00 0.589D+00
 Coeff:     -0.104D-02 0.191D-02 0.594D-01 0.158D+00 0.192D+00 0.589D+00
 Gap=     0.200 Goal=   None    Shift=    0.000
 RMSDP=8.65D-06 MaxDP=1.60D-04 DE=-4.68D-05 OVMax= 3.50D-04

 Initial convergence to 1.0D-05 achieved.  Increase integral accuracy.
 Cycle   7  Pass 1  IDiag  1:
 E= -234.568344426384     Delta-E=        0.000013556422 Rises=F Damp=F
 DIIS: error= 2.31D-05 at cycle   1 NSaved=   1.
 NSaved= 1 IEnMin= 1 EnMin= -234.568344426384     IErMin= 1 ErrMin= 2.31D-05
 ErrMax= 2.31D-05  0.00D+00 EMaxC= 1.00D-01 BMatC= 9.63D-08 BMatP= 9.63D-08
 IDIUse=1 WtCom= 1.00D+00 WtEn= 0.00D+00
 Coeff-Com:  0.100D+01
 Coeff:      0.100D+01
 Gap=     0.200 Goal=   None    Shift=    0.000
 RMSDP=8.65D-06 MaxDP=1.60D-04 DE= 1.36D-05 OVMax= 2.39D-04

 Cycle   8  Pass 1  IDiag  1:
 E= -234.568344428595     Delta-E=       -0.000000002210 Rises=F Damp=F
 DIIS: error= 3.08D-05 at cycle   2 NSaved=   2.
 NSaved= 2 IEnMin= 2 EnMin= -234.568344428595     IErMin= 1 ErrMin= 2.31D-05
 ErrMax= 3.08D-05  0.00D+00 EMaxC= 1.00D-01 BMatC= 1.28D-07 BMatP= 9.63D-08
 IDIUse=1 WtCom= 1.00D+00 WtEn= 0.00D+00
 Coeff-Com:  0.539D+00 0.461D+00
 Coeff:      0.539D+00 0.461D+00
 Gap=     0.200 Goal=   None    Shift=    0.000
 RMSDP=3.36D-06 MaxDP=5.98D-05 DE=-2.21D-09 OVMax= 1.41D-04

 Cycle   9  Pass 1  IDiag  1:
 E= -234.568344561184     Delta-E=       -0.000000132589 Rises=F Damp=F
 DIIS: error= 7.47D-06 at cycle   3 NSaved=   3.
 NSaved= 3 IEnMin= 3 EnMin= -234.568344561184     IErMin= 3 ErrMin= 7.47D-06
 ErrMax= 7.47D-06  0.00D+00 EMaxC= 1.00D-01 BMatC= 5.55D-09 BMatP= 9.63D-08
 IDIUse=1 WtCom= 1.00D+00 WtEn= 0.00D+00
 Coeff-Com:  0.141D+00 0.194D+00 0.665D+00
 Coeff:      0.141D+00 0.194D+00 0.665D+00
 Gap=     0.200 Goal=   None    Shift=    0.000
 RMSDP=9.55D-07 MaxDP=1.85D-05 DE=-1.33D-07 OVMax= 4.81D-05

 Cycle  10  Pass 1  IDiag  1:
 E= -234.568344564271     Delta-E=       -0.000000003088 Rises=F Damp=F
 DIIS: error= 5.59D-06 at cycle   4 NSaved=   4.
 NSaved= 4 IEnMin= 4 EnMin= -234.568344564271     IErMin= 4 ErrMin= 5.59D-06
 ErrMax= 5.59D-06  0.00D+00 EMaxC= 1.00D-01 BMatC= 2.42D-09 BMatP= 5.55D-09
 IDIUse=1 WtCom= 1.00D+00 WtEn= 0.00D+00
 Coeff-Com: -0.136D-01 0.333D-01 0.430D+00 0.550D+00
 Coeff:     -0.136D-01 0.333D-01 0.430D+00 0.550D+00
 Gap=     0.200 Goal=   None    Shift=    0.000
 RMSDP=5.17D-07 MaxDP=8.98D-06 DE=-3.09D-09 OVMax= 2.99D-05

 Cycle  11  Pass 1  IDiag  1:
 E= -234.568344566964     Delta-E=       -0.000000002693 Rises=F Damp=F
 DIIS: error= 9.83D-07 at cycle   5 NSaved=   5.
 NSaved= 5 IEnMin= 5 EnMin= -234.568344566964     IErMin= 5 ErrMin= 9.83D-07
 ErrMax= 9.83D-07  0.00D+00 EMaxC= 1.00D-01 BMatC= 6.40D-11 BMatP= 2.42D-09
 IDIUse=1 WtCom= 1.00D+00 WtEn= 0.00D+00
 Coeff-Com: -0.104D-01 0.557D-02 0.137D+00 0.248D+00 0.620D+00
 Coeff:     -0.104D-01 0.557D-02 0.137D+00 0.248D+00 0.620D+00
 Gap=     0.200 Goal=   None    Shift=    0.000
 RMSDP=1.02D-07 MaxDP=1.07D-06 DE=-2.69D-09 OVMax= 4.74D-06

 Cycle  12  Pass 1  IDiag  1:
 E= -234.568344567046     Delta-E=       -0.000000000081 Rises=F Damp=F
 DIIS: error= 8.74D-08 at cycle   6 NSaved=   6.
 NSaved= 6 IEnMin= 6 EnMin= -234.568344567046     IErMin= 6 ErrMin= 8.74D-08
 ErrMax= 8.74D-08  0.00D+00 EMaxC= 1.00D-01 BMatC= 6.45D-13 BMatP= 6.40D-11
 IDIUse=1 WtCom= 1.00D+00 WtEn= 0.00D+00
 Coeff-Com: -0.194D-03-0.188D-02-0.183D-01-0.881D-02 0.133D-01 0.102D+01
 Coeff:     -0.194D-03-0.188D-02-0.183D-01-0.881D-02 0.133D-01 0.102D+01
 Gap=     0.200 Goal=   None    Shift=    0.000
 RMSDP=1.83D-08 MaxDP=2.11D-07 DE=-8.14D-11 OVMax= 1.10D-06

 Cycle  13  Pass 1  IDiag  1:
 E= -234.568344567044     Delta-E=        0.000000000001 Rises=F Damp=F
 DIIS: error= 5.27D-08 at cycle   7 NSaved=   7.
 NSaved= 7 IEnMin= 6 EnMin= -234.568344567046     IErMin= 7 ErrMin= 5.27D-08
 ErrMax= 5.27D-08  0.00D+00 EMaxC= 1.00D-01 BMatC= 2.22D-13 BMatP= 6.45D-13
 IDIUse=1 WtCom= 1.00D+00 WtEn= 0.00D+00
 Coeff-Com:  0.161D-03-0.119D-02-0.139D-01-0.117D-01-0.723D-02 0.559D+00
 Coeff-Com:  0.475D+00
 Coeff:      0.161D-03-0.119D-02-0.139D-01-0.117D-01-0.723D-02 0.559D+00
 Coeff:      0.475D+00
 Gap=     0.200 Goal=   None    Shift=    0.000
 RMSDP=5.64D-09 MaxDP=1.19D-07 DE= 1.25D-12 OVMax= 3.21D-07

 SCF Done:  E(RB3LYP) =  -234.568344567     A.U. after   13 cycles
            NFock= 13  Conv=0.56D-08     -V/T= 2.0098
 KE= 2.322864690798D+02 PE=-9.796518516448D+02 EE= 2.940784982390D+02
 Leave Link  502 at Sun May 12 20:58:12 2019, MaxMem=  2097152000 cpu:        17.6
 (Enter /mnt/e/g09/l601.exe)
 Copying SCF densities to generalized density rwf, IOpCl= 0 IROHF=0.

 **********************************************************************

            Population analysis using the SCF density.

 **********************************************************************

 Alpha  occ. eigenvalues --  -10.18327 -10.18293 -10.18153 -10.18151 -10.17210
 Alpha  occ. eigenvalues --  -10.17127  -0.79930  -0.74287  -0.71916  -0.61693
 Alpha  occ. eigenvalues --   -0.57116  -0.52183  -0.48736  -0.45778  -0.43148
 Alpha  occ. eigenvalues --   -0.41001  -0.40551  -0.36042  -0.34851  -0.34098
 Alpha  occ. eigenvalues --   -0.32619  -0.23437  -0.22194
 Alpha virt. eigenvalues --   -0.02158   0.03272   0.09745   0.10527   0.11004
 Alpha virt. eigenvalues --    0.14393   0.14767   0.15104   0.16649   0.19747
 Alpha virt. eigenvalues --    0.20906   0.22467   0.25260   0.30582   0.33810
 Alpha virt. eigenvalues --    0.35800   0.44617   0.45189   0.50166   0.53353
 Alpha virt. eigenvalues --    0.54780   0.57834   0.58028   0.59586   0.61882
 Alpha virt. eigenvalues --    0.62362   0.65344   0.65778   0.66769   0.71380
 Alpha virt. eigenvalues --    0.71626   0.83685   0.85955   0.86339   0.87258
 Alpha virt. eigenvalues --    0.88336   0.89321   0.89387   0.94137   0.94741
 Alpha virt. eigenvalues --    0.95918   0.99394   1.01894   1.02881   1.05757
 Alpha virt. eigenvalues --    1.13825   1.17409   1.24496   1.25622   1.38268
 Alpha virt. eigenvalues --    1.38348   1.48241   1.51422   1.57224   1.57937
 Alpha virt. eigenvalues --    1.62285   1.73537   1.78780   1.83640   1.86036
 Alpha virt. eigenvalues --    1.89344   1.91197   1.97336   2.02192   2.02561
 Alpha virt. eigenvalues --    2.11548   2.12189   2.22225   2.23277   2.27262
 Alpha virt. eigenvalues --    2.29065   2.30811   2.44138   2.55906   2.56681
 Alpha virt. eigenvalues --    2.58201   2.62704   2.72107   2.73436   2.87633
 Alpha virt. eigenvalues --    3.08044   4.09826   4.21013   4.23350   4.25273
 Alpha virt. eigenvalues --    4.40823   4.50662
          Condensed to atoms (all electrons):
               1          2          3          4          5          6
     1  C    5.077094   0.366837   0.363651   0.629777  -0.059125  -0.038778
     2  H    0.366837   0.561414  -0.043994  -0.029181   0.005900  -0.013883
     3  H    0.363651  -0.043994   0.565710  -0.023446  -0.007827   0.004748
     4  C    0.629777  -0.029181  -0.023446   4.760568   0.366248   0.480184
     5  H   -0.059125   0.005900  -0.007827   0.366248   0.617180  -0.044434
     6  C   -0.038778  -0.013883   0.004748   0.480184  -0.044434   4.760526
     7  C   -0.025449   0.005822   0.000182  -0.038770   0.006603   0.629787
     8  H    0.000182  -0.000114  -0.000001   0.004747  -0.000169  -0.023443
     9  H    0.006603   0.000011  -0.000168  -0.044437  -0.007015   0.366251
    10  H    0.005824   0.003846  -0.000114  -0.013882   0.000011  -0.029182
    11  C    0.010116  -0.002064  -0.000372  -0.007965  -0.000014  -0.009180
    12  H   -0.002178  -0.000739   0.000137   0.000117  -0.000014   0.000125
    13  H    0.000765  -0.000049  -0.000240   0.000087   0.000287  -0.000255
    14  C   -0.006969  -0.002179   0.000361  -0.009170  -0.000021  -0.007957
    15  H   -0.000040  -0.000003  -0.000006  -0.000256  -0.000017   0.000071
    16  H    0.000241   0.000071  -0.000004   0.000125   0.000001   0.000123
               7          8          9         10         11         12
     1  C   -0.025449   0.000182   0.006603   0.005824   0.010116  -0.002178
     2  H    0.005822  -0.000114   0.000011   0.003846  -0.002064  -0.000739
     3  H    0.000182  -0.000001  -0.000168  -0.000114  -0.000372   0.000137
     4  C   -0.038770   0.004747  -0.044437  -0.013882  -0.007965   0.000117
     5  H    0.006603  -0.000169  -0.007015   0.000011  -0.000014  -0.000014
     6  C    0.629787  -0.023443   0.366251  -0.029182  -0.009180   0.000125
     7  C    5.077106   0.363660  -0.059124   0.366819  -0.006952   0.000245
     8  H    0.363660   0.565703  -0.007826  -0.043990   0.000361  -0.000004
     9  H   -0.059124  -0.007826   0.617178   0.005900  -0.000021   0.000001
    10  H    0.366819  -0.043990   0.005900   0.561424  -0.002173   0.000067
    11  C   -0.006952   0.000361  -0.000021  -0.002173   4.959839   0.377955
    12  H    0.000245  -0.000004   0.000001   0.000067   0.377955   0.575776
    13  H   -0.000042  -0.000006  -0.000017  -0.000002   0.379107  -0.044867
    14  C    0.010071  -0.000378  -0.000011  -0.002044   0.661187  -0.038760
    15  H    0.000798  -0.000238   0.000284  -0.000061  -0.033621   0.005203
    16  H   -0.002183   0.000136  -0.000014  -0.000721  -0.038762  -0.008628
              13         14         15         16
     1  C    0.000765  -0.006969  -0.000040   0.000241
     2  H   -0.000049  -0.002179  -0.000003   0.000071
     3  H   -0.000240   0.000361  -0.000006  -0.000004
     4  C    0.000087  -0.009170  -0.000256   0.000125
     5  H    0.000287  -0.000021  -0.000017   0.000001
     6  C   -0.000255  -0.007957   0.000071   0.000123
     7  C   -0.000042   0.010071   0.000798  -0.002183
     8  H   -0.000006  -0.000378  -0.000238   0.000136
     9  H   -0.000017  -0.000011   0.000284  -0.000014
    10  H   -0.000002  -0.002044  -0.000061  -0.000721
    11  C    0.379107   0.661187  -0.033621  -0.038762
    12  H   -0.044867  -0.038760   0.005203  -0.008628
    13  H    0.559067  -0.033629  -0.008564   0.005204
    14  C   -0.033629   4.959993   0.379106   0.377947
    15  H   -0.008564   0.379106   0.559030  -0.044868
    16  H    0.005204   0.377947  -0.044868   0.575831
 Mulliken charges:
               1
     1  C   -0.328551
     2  H    0.148304
     3  H    0.141382
     4  C   -0.074746
     5  H    0.122405
     6  C   -0.074703
     7  C   -0.328573
     8  H    0.141379
     9  H    0.122406
    10  H    0.148280
    11  C   -0.287441
    12  H    0.135564
    13  H    0.143154
    14  C   -0.287545
    15  H    0.143183
    16  H    0.135502
 Sum of Mulliken charges =   0.00000
 Mulliken charges with hydrogens summed into heavy atoms:
               1
     1  C   -0.038865
     4  C    0.047660
     6  C    0.047703
     7  C   -0.038914
    11  C   -0.008723
    14  C   -0.008860
 Electronic spatial extent (au):  <R**2>=            659.9915
 Charge=              0.0000 electrons
 Dipole moment (field-independent basis, Debye):
    X=              0.0353    Y=             -0.0006    Z=             -0.0157  Tot=              0.0387
 Quadrupole moment (field-independent basis, Debye-Ang):
   XX=            -41.6962   YY=            -35.1180   ZZ=            -36.7549
   XY=             -0.0034   XZ=             -3.3282   YZ=             -0.0024
 Traceless Quadrupole moment (field-independent basis, Debye-Ang):
   XX=             -3.8398   YY=              2.7383   ZZ=              1.1015
   XY=             -0.0034   XZ=             -3.3282   YZ=             -0.0024
 Octapole moment (field-independent basis, Debye-Ang**2):
  XXX=              8.0409  YYY=             -0.0026  ZZZ=             -0.7248  XYY=             -0.2180
  XXY=             -0.0033  XXZ=             -1.2815  XZZ=              0.0349  YZZ=              0.0015
  YYZ=             -0.9891  XYZ=              0.0007
 Hexadecapole moment (field-independent basis, Debye-Ang**3):
 XXXX=           -488.7853 YYYY=           -320.6062 ZZZZ=           -108.1769 XXXY=             -0.0402
 XXXZ=            -27.9728 YYYX=             -0.0325 YYYZ=             -0.0304 ZZZX=            -11.6384
 ZZZY=              0.0133 XXYY=           -132.7693 XXZZ=            -92.8635 YYZZ=            -74.9449
 XXYZ=             -0.0035 YYXZ=             -7.1645 ZZXY=             -0.0093
 N-N= 2.187185397590D+02 E-N=-9.796518501546D+02  KE= 2.322864690798D+02
 No NMR shielding tensors so no spin-rotation constants.
 Leave Link  601 at Sun May 12 20:58:12 2019, MaxMem=  2097152000 cpu:         0.6
 (Enter /mnt/e/g09/l701.exe)
 Compute integral first derivatives.
 ... and contract with generalized density number  0.
 R6Disp: Adding Grimme-D3 dispersion energy 1st derivatives to the gradient.
 Leave Link  701 at Sun May 12 20:58:12 2019, MaxMem=  2097152000 cpu:         0.6
 (Enter /mnt/e/g09/l702.exe)
 L702 exits ... SP integral derivatives will be done elsewhere.
 Leave Link  702 at Sun May 12 20:58:12 2019, MaxMem=  2097152000 cpu:         0.1
 (Enter /mnt/e/g09/l703.exe)
 Compute integral first derivatives, UseDBF=F ICtDFT=           0.
 Integral derivatives from FoFJK, PRISM(SPDF).
 Calling FoFJK, ICntrl=      2127 FMM=F ISym2X=0 I1Cent= 0 IOpClX= 0 NMat=1 NMatS=1 NMatT=0.
 FoFJK:  IHMeth= 1 ICntrl=    2127 DoSepK=F KAlg= 0 I1Cent=   0 FoldK=F
 IRaf=         0 NMat=   1 IRICut=       1 DoRegI=T DoRafI=F ISym2E= 0.
 FoFCou: FMM=F IPFlag=           0 FMFlag=      100000 FMFlg1=         800
         NFxFlg=           0 DoJE=F BraDBF=F KetDBF=F FulRan=T
         wScrn=  0.000000 ICntrl=    2127 IOpCl=  0 I1Cent=           0 NGrid=           0
         NMat0=    1 NMatS0=      1 NMatT0=    0 NMatD0=    1 NMtDS0=    0 NMtDT0=    0
 Symmetry not used in FoFCou.
 Leave Link  703 at Sun May 12 20:58:13 2019, MaxMem=  2097152000 cpu:         5.0
 (Enter /mnt/e/g09/l716.exe)
 Dipole        = 1.38877866D-02-2.46657997D-04-6.19639448D-03
 -------------------------------------------------------------------
 Center     Atomic                   Forces (Hartrees/Bohr)
 Number     Number              X              Y              Z
 -------------------------------------------------------------------
      1        6           0.008460870   -0.003110930    0.002896998
      2        1           0.000170219   -0.000269834   -0.000009688
      3        1           0.001060022   -0.000248303    0.000331960
      4        6           0.001285493   -0.000665269    0.000040184
      5        1           0.000200694    0.000045093    0.000000544
      6        6           0.001289003    0.000667335    0.000044124
      7        6           0.008458377    0.003118902    0.002891740
      8        1           0.001060515    0.000249739    0.000331996
      9        1           0.000201879   -0.000044297    0.000000944
     10        1           0.000168707    0.000269750   -0.000010163
     11        6          -0.010244958    0.000446859   -0.003057826
     12        1          -0.000579797   -0.000020559   -0.000117964
     13        1          -0.000356340   -0.000000554   -0.000080813
     14        6          -0.010240134   -0.000458135   -0.003061449
     15        1          -0.000353357    0.000000038   -0.000081284
     16        1          -0.000581193    0.000020166   -0.000119303
 -------------------------------------------------------------------
 Cartesian Forces:  Max     0.010244958 RMS     0.002944971
 Leave Link  716 at Sun May 12 20:58:13 2019, MaxMem=  2097152000 cpu:         0.0
 (Enter /mnt/e/g09/l103.exe)

 GradGradGradGradGradGradGradGradGradGradGradGradGradGradGradGradGradGrad
 Berny optimization.
 FormGI is forming the generalized inverse of G from B-inverse, IUseBI=4.
 Internal  Forces:  Max     0.024164757 RMS     0.006009736
 Search for a local minimum.
 Step number   1 out of a maximum of   74
 All quantities printed in internal units (Hartrees-Bohrs-Radians)
 RMS Force = .60097D-02 SwitMx=.10000D-02 MixMth= 1
 Mixed Optimization -- RFO/linear search
 Second derivative matrix not updated -- first step.
 ITU=  0
     Eigenvalues ---    0.00546   0.01081   0.01512   0.01547   0.01627
     Eigenvalues ---    0.01655   0.01762   0.02035   0.02149   0.02327
     Eigenvalues ---    0.02340   0.02441   0.03241   0.04633   0.07882
     Eigenvalues ---    0.10912   0.13227   0.13547   0.15912   0.15913
     Eigenvalues ---    0.15959   0.15959   0.15965   0.15965   0.16000
     Eigenvalues ---    0.16000   0.17624   0.21181   0.33702   0.34608
     Eigenvalues ---    0.34893   0.34893   0.35268   0.35268   0.35401
     Eigenvalues ---    0.35492   0.35493   0.35516   0.37864   0.53688
     Eigenvalues ---    0.54096   0.56442
 RFO step:  Lambda=-2.06051741D-02 EMin= 5.45951558D-03
 Linear search not attempted -- first point.
 Maximum step size (   0.300) exceeded in Quadratic search.
    -- Step size scaled by   0.588
 Iteration  1 RMS(Cart)=  0.15022493 RMS(Int)=  0.00311757
 Iteration  2 RMS(Cart)=  0.00459643 RMS(Int)=  0.00043890
 Iteration  3 RMS(Cart)=  0.00001071 RMS(Int)=  0.00043884
 Iteration  4 RMS(Cart)=  0.00000000 RMS(Int)=  0.00043884
 ITry= 1 IFail=0 DXMaxC= 5.42D-01 DCOld= 1.00D+10 DXMaxT= 3.00D-01 DXLimC= 3.00D+00 Rises=F
 Variable       Old X    -DE/DX   Delta X   Delta X   Delta X     New X
                                 (Linear)    (Quad)   (Total)
    R1        2.04694   0.00236   0.00000   0.00488   0.00492   2.05187
    R2        2.05242   0.00016   0.00000   0.00026   0.00026   2.05267
    R3        2.54937   0.00256   0.00000   0.00143   0.00136   2.55073
    R4        4.50376   0.01154   0.00000   0.18227   0.18226   4.68602
    R5        2.05849   0.00008   0.00000   0.00012   0.00012   2.05861
    R6        2.73635   0.00374   0.00000   0.00245   0.00233   2.73868
    R7        2.54935   0.00256   0.00000   0.00144   0.00137   2.55072
    R8        2.05849   0.00008   0.00000   0.00013   0.00013   2.05861
    R9        2.05241   0.00016   0.00000   0.00026   0.00026   2.05267
   R10        2.04694   0.00236   0.00000   0.00488   0.00493   2.05188
   R11        4.50344   0.01154   0.00000   0.18243   0.18242   4.68587
   R12        2.05328  -0.00090   0.00000   0.00029   0.00036   2.05364
   R13        2.04884  -0.00003   0.00000  -0.00004  -0.00004   2.04880
   R14        2.53252   0.00009   0.00000   0.00212   0.00224   2.53477
   R15        2.04881  -0.00002   0.00000  -0.00004  -0.00004   2.04878
   R16        2.05330  -0.00090   0.00000   0.00027   0.00034   2.05363
    A1        2.02293   0.00045   0.00000   0.00470   0.00419   2.02712
    A2        2.13408  -0.00009   0.00000  -0.00858  -0.00780   2.12628
    A3        2.12018  -0.00053   0.00000   0.00176   0.00128   2.12146
    A4        1.66925   0.02416   0.00000   0.08141   0.08132   1.75058
    A5        2.06670  -0.00221   0.00000   0.00175   0.00143   2.06812
    A6        2.17521   0.00467   0.00000  -0.00183  -0.00121   2.17399
    A7        2.03161  -0.00228   0.00000   0.00131   0.00096   2.03257
    A8        2.17522   0.00467   0.00000  -0.00182  -0.00119   2.17403
    A9        2.03159  -0.00228   0.00000   0.00130   0.00095   2.03254
   A10        2.06672  -0.00221   0.00000   0.00173   0.00141   2.06813
   A11        2.12019  -0.00054   0.00000   0.00173   0.00125   2.12144
   A12        2.13406  -0.00007   0.00000  -0.00851  -0.00771   2.12635
   A13        2.02294   0.00044   0.00000   0.00466   0.00415   2.02709
   A14        1.67196   0.02412   0.00000   0.08135   0.08127   1.75324
   A15        2.02582  -0.00115   0.00000  -0.00605  -0.00561   2.02021
   A16        2.12744   0.00212   0.00000   0.01249   0.01153   2.13897
   A17        2.12497  -0.00072   0.00000  -0.00532  -0.00489   2.12008
   A18        1.49792   0.01742   0.00000   0.06835   0.06855   1.56647
   A19        2.12499  -0.00071   0.00000  -0.00529  -0.00485   2.12013
   A20        2.12738   0.00210   0.00000   0.01241   0.01144   2.13882
   A21        2.02587  -0.00115   0.00000  -0.00602  -0.00557   2.02031
   A22        1.49761   0.01744   0.00000   0.06848   0.06866   1.56627
    D1       -1.35645   0.00166   0.00000   0.02326   0.02304  -1.33342
    D2        1.90112   0.00331   0.00000   0.04360   0.04343   1.94455
    D3        3.04856  -0.00055   0.00000  -0.00864  -0.00874   3.03982
    D4       -0.24771   0.00067   0.00000   0.00123   0.00101  -0.24670
    D5        0.02933   0.00113   0.00000   0.01268   0.01261   0.04194
    D6        3.01624   0.00234   0.00000   0.02256   0.02236   3.03860
    D7       -0.94653  -0.00062   0.00000  -0.03495  -0.03658  -0.98311
    D8        0.00043  -0.00001   0.00000  -0.00009  -0.00009   0.00034
    D9       -2.98940  -0.00118   0.00000  -0.00977  -0.00964  -2.99904
   D10        2.99016   0.00117   0.00000   0.00965   0.00952   2.99968
   D11        0.00033   0.00000   0.00000  -0.00003  -0.00003   0.00029
   D12       -3.01612  -0.00233   0.00000  -0.02251  -0.02231  -3.03843
   D13        0.24775  -0.00067   0.00000  -0.00128  -0.00105   0.24670
   D14       -0.02911  -0.00112   0.00000  -0.01269  -0.01262  -0.04173
   D15       -3.04842   0.00054   0.00000   0.00854   0.00864  -3.03978
   D16       -1.90010  -0.00328   0.00000  -0.04343  -0.04326  -1.94336
   D17        1.35741  -0.00164   0.00000  -0.02318  -0.02295   1.33445
   D18        0.94152   0.00060   0.00000   0.03484   0.03648   0.97801
   D19        1.70876   0.00340   0.00000   0.03927   0.03911   1.74788
   D20       -1.53787   0.00596   0.00000   0.05066   0.05032  -1.48755
   D21       -3.03025  -0.00269   0.00000  -0.01209  -0.01190  -3.04215
   D22        0.00045  -0.00001   0.00000  -0.00013  -0.00013   0.00032
   D23        0.00035   0.00000   0.00000  -0.00002  -0.00001   0.00034
   D24        3.03105   0.00268   0.00000   0.01194   0.01175   3.04281
   D25        1.54078  -0.00598   0.00000  -0.05087  -0.05053   1.49025
   D26       -1.70577  -0.00343   0.00000  -0.03959  -0.03942  -1.74519
         Item               Value     Threshold  Converged?
 Maximum Force            0.024165     0.000450     NO 
 RMS     Force            0.006010     0.000300     NO 
 Maximum Displacement     0.542252     0.001800     NO 
 RMS     Displacement     0.152561     0.001200     NO 
 Predicted change in Energy=-9.667090D-03
 Lowest energy point so far.  Saving SCF results.
 GradGradGradGradGradGradGradGradGradGradGradGradGradGradGradGradGradGrad

 Leave Link  103 at Sun May 12 20:58:13 2019, MaxMem=  2097152000 cpu:         0.3
 (Enter /mnt/e/g09/l202.exe)
                          Input orientation:                          
 ---------------------------------------------------------------------
 Center     Atomic      Atomic             Coordinates (Angstroms)
 Number     Number       Type             X           Y           Z
 ---------------------------------------------------------------------
      1          6           0        0.651963   -1.489775    0.536337
      2          1           0        0.119038   -1.077611    1.387850
      3          1           0        0.623327   -2.570522    0.431197
      4          6           0        1.437581   -0.724212   -0.250203
      5          1           0        2.022440   -1.209768   -1.030526
      6          6           0        1.437158    0.725034   -0.250890
      7          6           0        0.651380    1.490915    0.535170
      8          1           0        0.622002    2.571527    0.428871
      9          1           0        2.021512    1.210163   -1.031857
     10          1           0        0.118946    1.079347    1.387285
     11          6           0       -1.954549   -0.671603   -0.298021
     12          1           0       -2.217806   -1.258173    0.578129
     13          1           0       -1.776528   -1.235860   -1.206515
     14          6           0       -1.955928    0.669734   -0.295684
     15          1           0       -1.779385    1.237562   -1.202226
     16          1           0       -2.220127    1.252566    0.582668
 ---------------------------------------------------------------------
                    Distance matrix (angstroms):
                    1          2          3          4          5
     1  C    0.000000
     2  H    1.085800   0.000000
     3  H    1.086227   1.843441   0.000000
     4  C    1.349788   2.132291   2.129831   0.000000
     5  H    2.100398   3.080413   2.438402   1.089371   0.000000
     6  C    2.478232   2.769916   3.462406   1.449246   2.166529
     7  C    2.980690   2.758220   4.062865   2.478247   3.409531
     8  H    4.062834   3.806418   5.142050   3.462399   4.288271
     9  H    3.409481   3.835140   4.288243   2.166510   2.419932
    10  H    2.758370   2.156958   3.806580   2.770016   3.835251
    11  C    2.856478   2.703103   3.283762   3.392875   4.079538
    12  H    2.879403   2.479736   3.133031   3.785908   4.535394
    13  H    2.999930   3.216978   3.197300   3.392170   3.803132
    14  C    3.486665   3.192645   4.204779   3.668931   4.460934
    15  H    4.046285   3.958854   4.789843   3.886358   4.524686
    16  H    3.971333   3.398490   4.766988   4.240301   5.163803
                    6          7          8          9         10
     6  C    0.000000
     7  C    1.349781   0.000000
     8  H    2.129810   1.086226   0.000000
     9  H    1.089371   2.100394   2.438374   0.000000
    10  H    2.132331   1.085806   1.843427   3.080441   0.000000
    11  C    3.668310   3.487343   4.205340   4.459666   3.194600
    12  H    4.240182   3.973860   4.770051   5.162999   3.402814
    13  H    3.884084   4.045184   4.787863   4.520912   3.959900
    14  C    3.393832   2.857047   3.284436   4.080937   2.702827
    15  H    3.393210   2.998559   3.194777   3.804812   3.214695
    16  H    3.787987   2.881774   3.137038   4.538721   2.479653
                   11         12         13         14         15
    11  C    0.000000
    12  H    1.086742   0.000000
    13  H    1.084177   1.838527   0.000000
    14  C    1.341340   2.132828   2.119690   0.000000
    15  H    2.119713   3.096865   2.473428   1.084165   0.000000
    16  H    2.132738   2.510744   3.096808   1.086737   1.838565
                   16
    16  H    0.000000
 Symmetry turned off by external request.
 Stoichiometry    C6H10
 Framework group  C1[X(C6H10)]
 Deg. of freedom    42
 Full point group                 C1      NOp   1
 Rotational constants (GHZ):      4.1708774      2.5604530      1.8089592
 Leave Link  202 at Sun May 12 20:58:13 2019, MaxMem=  2097152000 cpu:         0.0
 (Enter /mnt/e/g09/l301.exe)
 Standard basis: 6-31G(d) (6D, 7F)
 Ernie: Thresh=  0.10000D-02 Tol=  0.10000D-05 Strict=F.
   110 basis functions,   208 primitive gaussians,   110 cartesian basis functions
    23 alpha electrons       23 beta electrons
       nuclear repulsion energy       212.5724671177 Hartrees.
 IExCor=  402 DFT=T Ex+Corr=B3LYP ExCW=0 ScaHFX=  0.200000
 ScaDFX=  0.800000  0.720000  1.000000  0.810000 ScalE2=  1.000000  1.000000
 IRadAn=      0 IRanWt=     -1 IRanGd=            0 ICorTp=0 IEmpDi=131
 NAtoms=   16 NActive=   16 NUniq=   16 SFac= 1.00D+00 NAtFMM=   60 NAOKFM=F Big=F
 Integral buffers will be    131072 words long.
 Raffenetti 2 integral format.
 Two-electron integral symmetry is turned off.
 R6Disp:  Grimme-D3 Dispersion energy=       -0.0113780705 Hartrees.
 Nuclear repulsion after empirical dispersion term =      212.5610890471 Hartrees.
 Leave Link  301 at Sun May 12 20:58:13 2019, MaxMem=  2097152000 cpu:         0.1
 (Enter /mnt/e/g09/l302.exe)
 NPDir=0 NMtPBC=     1 NCelOv=     1 NCel=       1 NClECP=     1 NCelD=      1
         NCelK=      1 NCelE2=     1 NClLst=     1 CellRange=     0.0.
 One-electron integrals computed using PRISM.
 NBasis=   110 RedAO= T EigKep=  2.53D-03  NBF=   110
 NBsUse=   110 1.00D-06 EigRej= -1.00D+00 NBFU=   110
 Precomputing XC quadrature grid using
 IXCGrd= 4 IRadAn=           0 IRanWt=          -1 IRanGd=           0 AccXCQ= 0.00D+00.
 Generated NRdTot=       0 NPtTot=           0 NUsed=           0 NTot=          32
 NSgBfM=   110   110   110   110   110 MxSgAt=    16 MxSgA2=    16.
 Leave Link  302 at Sun May 12 20:58:13 2019, MaxMem=  2097152000 cpu:         0.7
 (Enter /mnt/e/g09/l303.exe)
 DipDrv:  MaxL=1.
 Leave Link  303 at Sun May 12 20:58:13 2019, MaxMem=  2097152000 cpu:         0.1
 (Enter /mnt/e/g09/l401.exe)
 Initial guess from the checkpoint file:  "/mnt/e/scratch/Gau-7892.chk"
 B after Tr=     0.013563    0.000007    0.000953
         Rot=    1.000000   -0.000008    0.000590    0.000001 Ang=  -0.07 deg.
 Guess basis will be translated and rotated to current coordinates.
 JPrj=2 DoOrth=T DoCkMO=T.
 Generating alternative initial guess.
 ExpMin= 1.61D-01 ExpMax= 3.05D+03 ExpMxC= 4.57D+02 IAcc=1 IRadAn=         1 AccDes= 0.00D+00
 Harris functional with IExCor=  402 and IRadAn=       1 diagonalized for initial guess.
 HarFok:  IExCor=  402 AccDes= 0.00D+00 IRadAn=         1 IDoV= 1 UseB2=F ITyADJ=14
 ICtDFT=  3500011 ScaDFX=  1.000000  1.000000  1.000000  1.000000
 FoFCou: FMM=F IPFlag=           0 FMFlag=      100000 FMFlg1=           0
         NFxFlg=           0 DoJE=T BraDBF=F KetDBF=T FulRan=T
         wScrn=  0.000000 ICntrl=     500 IOpCl=  0 I1Cent=   200000004 NGrid=           0
         NMat0=    1 NMatS0=      1 NMatT0=    0 NMatD0=    1 NMtDS0=    0 NMtDT0=    0
 Symmetry not used in FoFCou.
 Harris En= -234.653709833346    
 Leave Link  401 at Sun May 12 20:58:13 2019, MaxMem=  2097152000 cpu:         1.4
 (Enter /mnt/e/g09/l502.exe)
 Closed shell SCF:
 Using DIIS extrapolation, IDIIS=  1040.
 Two-electron integral symmetry not used.
 Keep R1 ints in memory in canonical form, NReq=19626885.
 IVT=       56422 IEndB=       56422 NGot=  2097152000 MDV=  2078457014
 LenX=  2078457014 LenY=  2078444473
 Requested convergence on RMS density matrix=1.00D-08 within 128 cycles.
 Requested convergence on MAX density matrix=1.00D-06.
 Requested convergence on             energy=1.00D-06.
 No special actions if energy rises.
 FoFCou: FMM=F IPFlag=           0 FMFlag=           0 FMFlg1=           0
         NFxFlg=           0 DoJE=F BraDBF=F KetDBF=F FulRan=T
         wScrn=  0.000000 ICntrl=     600 IOpCl=  0 I1Cent=           0 NGrid=           0
         NMat0=    1 NMatS0=   6105 NMatT0=    0 NMatD0=    1 NMtDS0=    0 NMtDT0=    0
 Symmetry not used in FoFCou.
 Integral accuracy reduced to 1.0D-05 until final iterations.

 Cycle   1  Pass 0  IDiag  1:
 E= -234.565436087839    
 DIIS: error= 7.21D-03 at cycle   1 NSaved=   1.
 NSaved= 1 IEnMin= 1 EnMin= -234.565436087839     IErMin= 1 ErrMin= 7.21D-03
 ErrMax= 7.21D-03  0.00D+00 EMaxC= 1.00D-01 BMatC= 3.50D-03 BMatP= 3.50D-03
 IDIUse=3 WtCom= 9.28D-01 WtEn= 7.21D-02
 Coeff-Com:  0.100D+01
 Coeff-En:   0.100D+01
 Coeff:      0.100D+01
 Gap=     2.223 Goal=   None    Shift=    0.000
 GapD=    2.223 DampG=2.000 DampE=1.000 DampFc=2.0000 IDamp=-1.
 RMSDP=1.03D-03 MaxDP=1.39D-02              OVMax= 4.48D-02

 Cycle   2  Pass 0  IDiag  1:
 E= -234.575058272746     Delta-E=       -0.009622184907 Rises=F Damp=F
 DIIS: error= 1.01D-03 at cycle   2 NSaved=   2.
 NSaved= 2 IEnMin= 2 EnMin= -234.575058272746     IErMin= 2 ErrMin= 1.01D-03
 ErrMax= 1.01D-03  0.00D+00 EMaxC= 1.00D-01 BMatC= 6.95D-05 BMatP= 3.50D-03
 IDIUse=3 WtCom= 9.90D-01 WtEn= 1.01D-02
 Coeff-Com: -0.759D-01 0.108D+01
 Coeff-En:   0.000D+00 0.100D+01
 Coeff:     -0.751D-01 0.108D+01
 Gap=     0.195 Goal=   None    Shift=    0.000
 RMSDP=2.00D-04 MaxDP=2.63D-03 DE=-9.62D-03 OVMax= 9.29D-03

 Cycle   3  Pass 0  IDiag  1:
 E= -234.575217114627     Delta-E=       -0.000158841881 Rises=F Damp=F
 DIIS: error= 7.88D-04 at cycle   3 NSaved=   3.
 NSaved= 3 IEnMin= 3 EnMin= -234.575217114627     IErMin= 3 ErrMin= 7.88D-04
 ErrMax= 7.88D-04  0.00D+00 EMaxC= 1.00D-01 BMatC= 5.66D-05 BMatP= 6.95D-05
 IDIUse=3 WtCom= 9.92D-01 WtEn= 7.88D-03
 Coeff-Com: -0.524D-01 0.558D+00 0.495D+00
 Coeff-En:   0.000D+00 0.000D+00 0.100D+01
 Coeff:     -0.520D-01 0.553D+00 0.499D+00
 Gap=     0.196 Goal=   None    Shift=    0.000
 RMSDP=8.65D-05 MaxDP=1.62D-03 DE=-1.59D-04 OVMax= 3.95D-03

 Cycle   4  Pass 0  IDiag  1:
 E= -234.575267448147     Delta-E=       -0.000050333520 Rises=F Damp=F
 DIIS: error= 4.15D-04 at cycle   4 NSaved=   4.
 NSaved= 4 IEnMin= 4 EnMin= -234.575267448147     IErMin= 4 ErrMin= 4.15D-04
 ErrMax= 4.15D-04  0.00D+00 EMaxC= 1.00D-01 BMatC= 9.84D-06 BMatP= 5.66D-05
 IDIUse=3 WtCom= 9.96D-01 WtEn= 4.15D-03
 Coeff-Com: -0.165D-01 0.141D+00 0.301D+00 0.575D+00
 Coeff-En:   0.000D+00 0.000D+00 0.146D+00 0.854D+00
 Coeff:     -0.164D-01 0.140D+00 0.300D+00 0.576D+00
 Gap=     0.196 Goal=   None    Shift=    0.000
 RMSDP=3.16D-05 MaxDP=5.21D-04 DE=-5.03D-05 OVMax= 1.44D-03

 Cycle   5  Pass 0  IDiag  1:
 E= -234.575277653018     Delta-E=       -0.000010204871 Rises=F Damp=F
 DIIS: error= 7.10D-05 at cycle   5 NSaved=   5.
 NSaved= 5 IEnMin= 5 EnMin= -234.575277653018     IErMin= 5 ErrMin= 7.10D-05
 ErrMax= 7.10D-05  0.00D+00 EMaxC= 1.00D-01 BMatC= 6.62D-07 BMatP= 9.84D-06
 IDIUse=1 WtCom= 1.00D+00 WtEn= 0.00D+00
 Coeff-Com:  0.108D-03-0.181D-01 0.636D-01 0.265D+00 0.689D+00
 Coeff:      0.108D-03-0.181D-01 0.636D-01 0.265D+00 0.689D+00
 Gap=     0.196 Goal=   None    Shift=    0.000
 RMSDP=8.63D-06 MaxDP=1.43D-04 DE=-1.02D-05 OVMax= 3.31D-04

 Initial convergence to 1.0D-05 achieved.  Increase integral accuracy.
 Cycle   6  Pass 1  IDiag  1:
 E= -234.575355850892     Delta-E=       -0.000078197874 Rises=F Damp=F
 DIIS: error= 2.18D-05 at cycle   1 NSaved=   1.
 NSaved= 1 IEnMin= 1 EnMin= -234.575355850892     IErMin= 1 ErrMin= 2.18D-05
 ErrMax= 2.18D-05  0.00D+00 EMaxC= 1.00D-01 BMatC= 6.42D-08 BMatP= 6.42D-08
 IDIUse=1 WtCom= 1.00D+00 WtEn= 0.00D+00
 Coeff-Com:  0.100D+01
 Coeff:      0.100D+01
 Gap=     0.196 Goal=   None    Shift=    0.000
 RMSDP=8.63D-06 MaxDP=1.43D-04 DE=-7.82D-05 OVMax= 1.38D-04

 Cycle   7  Pass 1  IDiag  1:
 E= -234.575355894672     Delta-E=       -0.000000043779 Rises=F Damp=F
 DIIS: error= 2.17D-05 at cycle   2 NSaved=   2.
 NSaved= 2 IEnMin= 2 EnMin= -234.575355894672     IErMin= 2 ErrMin= 2.17D-05
 ErrMax= 2.17D-05  0.00D+00 EMaxC= 1.00D-01 BMatC= 4.01D-08 BMatP= 6.42D-08
 IDIUse=1 WtCom= 1.00D+00 WtEn= 0.00D+00
 Coeff-Com:  0.431D+00 0.569D+00
 Coeff:      0.431D+00 0.569D+00
 Gap=     0.196 Goal=   None    Shift=    0.000
 RMSDP=2.36D-06 MaxDP=4.36D-05 DE=-4.38D-08 OVMax= 9.19D-05

 Cycle   8  Pass 1  IDiag  1:
 E= -234.575355935242     Delta-E=       -0.000000040571 Rises=F Damp=F
 DIIS: error= 5.01D-06 at cycle   3 NSaved=   3.
 NSaved= 3 IEnMin= 3 EnMin= -234.575355935242     IErMin= 3 ErrMin= 5.01D-06
 ErrMax= 5.01D-06  0.00D+00 EMaxC= 1.00D-01 BMatC= 3.71D-09 BMatP= 4.01D-08
 IDIUse=1 WtCom= 1.00D+00 WtEn= 0.00D+00
 Coeff-Com:  0.649D-01 0.240D+00 0.695D+00
 Coeff:      0.649D-01 0.240D+00 0.695D+00
 Gap=     0.196 Goal=   None    Shift=    0.000
 RMSDP=7.95D-07 MaxDP=1.32D-05 DE=-4.06D-08 OVMax= 3.35D-05

 Cycle   9  Pass 1  IDiag  1:
 E= -234.575355937676     Delta-E=       -0.000000002434 Rises=F Damp=F
 DIIS: error= 5.00D-06 at cycle   4 NSaved=   4.
 NSaved= 4 IEnMin= 4 EnMin= -234.575355937676     IErMin= 4 ErrMin= 5.00D-06
 ErrMax= 5.00D-06  0.00D+00 EMaxC= 1.00D-01 BMatC= 1.58D-09 BMatP= 3.71D-09
 IDIUse=1 WtCom= 1.00D+00 WtEn= 0.00D+00
 Coeff-Com: -0.949D-02 0.929D-01 0.459D+00 0.458D+00
 Coeff:     -0.949D-02 0.929D-01 0.459D+00 0.458D+00
 Gap=     0.196 Goal=   None    Shift=    0.000
 RMSDP=3.58D-07 MaxDP=6.59D-06 DE=-2.43D-09 OVMax= 1.64D-05

 Cycle  10  Pass 1  IDiag  1:
 E= -234.575355939296     Delta-E=       -0.000000001620 Rises=F Damp=F
 DIIS: error= 5.45D-07 at cycle   5 NSaved=   5.
 NSaved= 5 IEnMin= 5 EnMin= -234.575355939296     IErMin= 5 ErrMin= 5.45D-07
 ErrMax= 5.45D-07  0.00D+00 EMaxC= 1.00D-01 BMatC= 4.26D-11 BMatP= 1.58D-09
 IDIUse=1 WtCom= 1.00D+00 WtEn= 0.00D+00
 Coeff-Com: -0.744D-02 0.307D-01 0.173D+00 0.223D+00 0.581D+00
 Coeff:     -0.744D-02 0.307D-01 0.173D+00 0.223D+00 0.581D+00
 Gap=     0.196 Goal=   None    Shift=    0.000
 RMSDP=6.04D-08 MaxDP=9.09D-07 DE=-1.62D-09 OVMax= 2.29D-06

 Cycle  11  Pass 1  IDiag  1:
 E= -234.575355939339     Delta-E=       -0.000000000044 Rises=F Damp=F
 DIIS: error= 5.80D-08 at cycle   6 NSaved=   6.
 NSaved= 6 IEnMin= 6 EnMin= -234.575355939339     IErMin= 6 ErrMin= 5.80D-08
 ErrMax= 5.80D-08  0.00D+00 EMaxC= 1.00D-01 BMatC= 3.31D-13 BMatP= 4.26D-11
 IDIUse=1 WtCom= 1.00D+00 WtEn= 0.00D+00
 Coeff-Com: -0.133D-02 0.384D-02 0.206D-01 0.312D-01 0.114D+00 0.832D+00
 Coeff:     -0.133D-02 0.384D-02 0.206D-01 0.312D-01 0.114D+00 0.832D+00
 Gap=     0.196 Goal=   None    Shift=    0.000
 RMSDP=9.08D-09 MaxDP=1.65D-07 DE=-4.37D-11 OVMax= 4.32D-07

 SCF Done:  E(RB3LYP) =  -234.575355939     A.U. after   11 cycles
            NFock= 11  Conv=0.91D-08     -V/T= 2.0102
 KE= 2.322026410711D+02 PE=-9.672493904828D+02 EE= 2.879103044253D+02
 Leave Link  502 at Sun May 12 20:58:15 2019, MaxMem=  2097152000 cpu:        13.6
 (Enter /mnt/e/g09/l701.exe)
 Compute integral first derivatives.
 ... and contract with generalized density number  0.
 R6Disp: Adding Grimme-D3 dispersion energy 1st derivatives to the gradient.
 Leave Link  701 at Sun May 12 20:58:15 2019, MaxMem=  2097152000 cpu:         0.7
 (Enter /mnt/e/g09/l702.exe)
 L702 exits ... SP integral derivatives will be done elsewhere.
 Leave Link  702 at Sun May 12 20:58:15 2019, MaxMem=  2097152000 cpu:         0.0
 (Enter /mnt/e/g09/l703.exe)
 Compute integral first derivatives, UseDBF=F ICtDFT=           0.
 Integral derivatives from FoFJK, PRISM(SPDF).
 Calling FoFJK, ICntrl=      2127 FMM=F ISym2X=0 I1Cent= 0 IOpClX= 0 NMat=1 NMatS=1 NMatT=0.
 FoFJK:  IHMeth= 1 ICntrl=    2127 DoSepK=F KAlg= 0 I1Cent=   0 FoldK=F
 IRaf=         0 NMat=   1 IRICut=       1 DoRegI=T DoRafI=F ISym2E= 0.
 FoFCou: FMM=F IPFlag=           0 FMFlag=      100000 FMFlg1=         800
         NFxFlg=           0 DoJE=F BraDBF=F KetDBF=F FulRan=T
         wScrn=  0.000000 ICntrl=    2127 IOpCl=  0 I1Cent=           0 NGrid=           0
         NMat0=    1 NMatS0=      1 NMatT0=    0 NMatD0=    1 NMtDS0=    0 NMtDT0=    0
 Symmetry not used in FoFCou.
 Leave Link  703 at Sun May 12 20:58:16 2019, MaxMem=  2097152000 cpu:         4.9
 (Enter /mnt/e/g09/l716.exe)
 Dipole        = 4.49925853D-03-1.72279205D-04-2.61292486D-02
 -------------------------------------------------------------------
 Center     Atomic                   Forces (Hartrees/Bohr)
 Number     Number              X              Y              Z
 -------------------------------------------------------------------
      1        6           0.011177852   -0.001617502    0.002673078
      2        1          -0.001887132   -0.000830080   -0.002831543
      3        1           0.000745108   -0.000016051    0.000112911
      4        6          -0.006205860   -0.008395041    0.001125896
      5        1           0.000067736    0.000036873   -0.000026952
      6        6          -0.006209949    0.008388142    0.001123238
      7        6           0.011162526    0.001632419    0.002664496
      8        1           0.000747390    0.000018095    0.000114569
      9        1           0.000068118   -0.000035102   -0.000026012
     10        1          -0.001883087    0.000822592   -0.002832859
     11        6          -0.007148254    0.007324970   -0.001167888
     12        1           0.000748160    0.000915596    0.000813457
     13        1           0.002500082   -0.000586049   -0.000687784
     14        6          -0.007134332   -0.007350712   -0.001177312
     15        1           0.002513253    0.000595395   -0.000686215
     16        1           0.000738389   -0.000903543    0.000808920
 -------------------------------------------------------------------
 Cartesian Forces:  Max     0.011177852 RMS     0.003942037
 Leave Link  716 at Sun May 12 20:58:16 2019, MaxMem=  2097152000 cpu:         0.1
 (Enter /mnt/e/g09/l103.exe)

 GradGradGradGradGradGradGradGradGradGradGradGradGradGradGradGradGradGrad
 Berny optimization.
 Using GEDIIS/GDIIS optimizer.
 FormGI is forming the generalized inverse of G from B-inverse, IUseBI=4.
 Internal  Forces:  Max     0.008745221 RMS     0.002774222
 Search for a local minimum.
 Step number   2 out of a maximum of   74
 All quantities printed in internal units (Hartrees-Bohrs-Radians)
 RMS Force = .27742D-02 SwitMx=.10000D-02 MixMth= 1
 Mixed Optimization -- RFO/linear search
 Update second derivatives using D2CorX and points    1    2
 DE= -7.01D-03 DEPred=-9.67D-03 R= 7.25D-01
 TightC=F SS=  1.41D+00  RLast= 3.28D-01 DXNew= 5.0454D-01 9.8278D-01
 Trust test= 7.25D-01 RLast= 3.28D-01 DXMaxT set to 5.05D-01
 ITU=  1  0
 Use linear search instead of GDIIS.
 Linear search step of   0.600 exceeds DXMaxT=   0.505 but not scaled.
 Quartic linear search produced a step of  2.00000.
 Iteration  1 RMS(Cart)=  0.25604738 RMS(Int)=  0.03133594
 Iteration  2 RMS(Cart)=  0.04832239 RMS(Int)=  0.00236480
 Iteration  3 RMS(Cart)=  0.00022169 RMS(Int)=  0.00236054
 Iteration  4 RMS(Cart)=  0.00000112 RMS(Int)=  0.00236054
 Iteration  5 RMS(Cart)=  0.00000000 RMS(Int)=  0.00236054
 ITry= 1 IFail=0 DXMaxC= 1.06D+00 DCOld= 1.00D+10 DXMaxT= 5.05D-01 DXLimC= 3.00D+00 Rises=F
 Variable       Old X    -DE/DX   Delta X   Delta X   Delta X     New X
                                 (Linear)    (Quad)   (Total)
    R1        2.05187   0.00027   0.00984   0.00000   0.00988   2.06174
    R2        2.05267  -0.00001   0.00051   0.00000   0.00051   2.05318
    R3        2.55073  -0.00399   0.00272   0.00000   0.00264   2.55337
    R4        4.68602   0.00386   0.36452   0.00000   0.36451   5.05053
    R5        2.05861   0.00004   0.00025   0.00000   0.00025   2.05886
    R6        2.73868   0.00875   0.00465   0.00000   0.00453   2.74321
    R7        2.55072  -0.00399   0.00274   0.00000   0.00268   2.55340
    R8        2.05861   0.00004   0.00025   0.00000   0.00025   2.05886
    R9        2.05267  -0.00001   0.00051   0.00000   0.00051   2.05318
   R10        2.05188   0.00027   0.00986   0.00000   0.00992   2.06180
   R11        4.68587   0.00386   0.36484   0.00000   0.36484   5.05070
   R12        2.05364   0.00100   0.00073   0.00000   0.00081   2.05445
   R13        2.04880   0.00129  -0.00008   0.00000  -0.00008   2.04872
   R14        2.53477  -0.00558   0.00449   0.00000   0.00461   2.53937
   R15        2.04878   0.00129  -0.00008   0.00000  -0.00008   2.04870
   R16        2.05363   0.00100   0.00068   0.00000   0.00073   2.05436
    A1        2.02712   0.00113   0.00837   0.00000   0.00547   2.03259
    A2        2.12628  -0.00131  -0.01560   0.00000  -0.01130   2.11497
    A3        2.12146   0.00043   0.00257   0.00000  -0.00001   2.12145
    A4        1.75058   0.00818   0.16264   0.00000   0.16185   1.91243
    A5        2.06812  -0.00164   0.00286   0.00000   0.00069   2.06881
    A6        2.17399   0.00342  -0.00243   0.00000   0.00173   2.17573
    A7        2.03257  -0.00160   0.00193   0.00000  -0.00036   2.03221
    A8        2.17403   0.00342  -0.00239   0.00000   0.00180   2.17583
    A9        2.03254  -0.00160   0.00191   0.00000  -0.00039   2.03215
   A10        2.06813  -0.00165   0.00282   0.00000   0.00064   2.06877
   A11        2.12144   0.00043   0.00250   0.00000  -0.00009   2.12134
   A12        2.12635  -0.00131  -0.01543   0.00000  -0.01108   2.11527
   A13        2.02709   0.00113   0.00829   0.00000   0.00537   2.03246
   A14        1.75324   0.00816   0.16255   0.00000   0.16179   1.91503
   A15        2.02021  -0.00026  -0.01121   0.00000  -0.00881   2.01140
   A16        2.13897   0.00109   0.02306   0.00000   0.01788   2.15685
   A17        2.12008  -0.00063  -0.00978   0.00000  -0.00744   2.11264
   A18        1.56647   0.00600   0.13709   0.00000   0.13724   1.70371
   A19        2.12013  -0.00063  -0.00971   0.00000  -0.00736   2.11278
   A20        2.13882   0.00110   0.02289   0.00000   0.01769   2.15651
   A21        2.02031  -0.00026  -0.01114   0.00000  -0.00872   2.01159
   A22        1.56627   0.00600   0.13732   0.00000   0.13740   1.70366
    D1       -1.33342  -0.00104   0.04607   0.00000   0.04467  -1.28875
    D2        1.94455  -0.00305   0.08686   0.00000   0.08568   2.03023
    D3        3.03982   0.00160  -0.01748   0.00000  -0.01800   3.02182
    D4       -0.24670   0.00297   0.00202   0.00000   0.00069  -0.24601
    D5        0.04194  -0.00055   0.02522   0.00000   0.02474   0.06668
    D6        3.03860   0.00081   0.04471   0.00000   0.04344   3.08204
    D7       -0.98311  -0.00059  -0.07317   0.00000  -0.08129  -1.06440
    D8        0.00034   0.00000  -0.00018   0.00000  -0.00017   0.00017
    D9       -2.99904  -0.00132  -0.01929   0.00000  -0.01847  -3.01751
   D10        2.99968   0.00132   0.01904   0.00000   0.01825   3.01792
   D11        0.00029   0.00000  -0.00007   0.00000  -0.00006   0.00023
   D12       -3.03843  -0.00081  -0.04461   0.00000  -0.04334  -3.08177
   D13        0.24670  -0.00297  -0.00210   0.00000  -0.00075   0.24595
   D14       -0.04173   0.00055  -0.02523   0.00000  -0.02475  -0.06648
   D15       -3.03978  -0.00161   0.01728   0.00000   0.01784  -3.02194
   D16       -1.94336   0.00305  -0.08652   0.00000  -0.08535  -2.02871
   D17        1.33445   0.00104  -0.04591   0.00000  -0.04450   1.28996
   D18        0.97801   0.00060   0.07297   0.00000   0.08116   1.05917
   D19        1.74788  -0.00168   0.07822   0.00000   0.07748   1.82536
   D20       -1.48755   0.00067   0.10065   0.00000   0.09912  -1.38843
   D21       -3.04215  -0.00251  -0.02379   0.00000  -0.02290  -3.06505
   D22        0.00032  -0.00001  -0.00025   0.00000  -0.00023   0.00010
   D23        0.00034  -0.00001  -0.00003   0.00000  -0.00002   0.00032
   D24        3.04281   0.00250   0.02351   0.00000   0.02266   3.06546
   D25        1.49025  -0.00067  -0.10106   0.00000  -0.09949   1.39076
   D26       -1.74519   0.00167  -0.07884   0.00000  -0.07804  -1.82323
         Item               Value     Threshold  Converged?
 Maximum Force            0.008745     0.000450     NO 
 RMS     Force            0.002774     0.000300     NO 
 Maximum Displacement     1.062816     0.001800     NO 
 RMS     Displacement     0.299501     0.001200     NO 
 Predicted change in Energy=-1.072419D-02
 Lowest energy point so far.  Saving SCF results.
 GradGradGradGradGradGradGradGradGradGradGradGradGradGradGradGradGradGrad

 Leave Link  103 at Sun May 12 20:58:16 2019, MaxMem=  2097152000 cpu:         0.3
 (Enter /mnt/e/g09/l202.exe)
                          Input orientation:                          
 ---------------------------------------------------------------------
 Center     Atomic      Atomic             Coordinates (Angstroms)
 Number     Number       Type             X           Y           Z
 ---------------------------------------------------------------------
      1          6           0        0.824445   -1.493665    0.503626
      2          1           0        0.193275   -1.070120    1.286295
      3          1           0        0.836357   -2.577234    0.424789
      4          6           0        1.699400   -0.725266   -0.181732
      5          1           0        2.387472   -1.210397   -0.873268
      6          6           0        1.699115    0.726380   -0.182154
      7          6           0        0.824028    1.494956    0.502868
      8          1           0        0.835520    2.578457    0.423065
      9          1           0        2.386856    1.211319   -0.874155
     10          1           0        0.192940    1.071985    1.285958
     11          6           0       -2.322622   -0.673026   -0.328503
     12          1           0       -2.374697   -1.275706    0.574825
     13          1           0       -2.338947   -1.230765   -1.258023
     14          6           0       -2.323815    0.670750   -0.326508
     15          1           0       -2.341425    1.231340   -1.254276
     16          1           0       -2.376879    1.270318    0.578774
 ---------------------------------------------------------------------
                    Distance matrix (angstroms):
                    1          2          3          4          5
     1  C    0.000000
     2  H    1.091026   0.000000
     3  H    1.086499   1.851254   0.000000
     4  C    1.351184   2.131301   2.131314   0.000000
     5  H    2.102172   3.081865   2.441137   1.089503   0.000000
     6  C    2.482728   2.766101   3.467938   1.451646   2.168543
     7  C    2.988621   2.755218   4.072957   2.482808   3.414241
     8  H    4.072934   3.803914   5.155692   3.467947   4.294701
     9  H    3.414139   3.832011   4.294698   2.168503   2.421716
    10  H    2.755613   2.142105   3.804261   2.766523   3.832427
    11  C    3.357070   3.015791   3.764652   4.025039   4.771847
    12  H    3.207349   2.672627   3.468048   4.180147   4.977900
    13  H    3.630368   3.593259   3.837628   4.209772   4.742097
    14  C    3.909649   3.459408   4.593532   4.260996   5.102341
    15  H    4.531954   4.263323   5.236678   4.615943   5.335702
    16  H    4.230098   3.547383   5.015202   4.601823   5.564298
                    6          7          8          9         10
     6  C    0.000000
     7  C    1.351200   0.000000
     8  H    2.131262   1.086497   0.000000
     9  H    1.089504   2.102159   2.441002   0.000000
    10  H    2.131516   1.091058   1.851203   3.082008   0.000000
    11  C    4.260766   3.910592   4.594656   5.101733   3.461156
    12  H    4.601881   4.232444   5.018277   5.563921   3.551074
    13  H    4.614526   4.531522   5.235787   5.333323   4.264381
    14  C    4.025904   3.357990   3.765981   4.773108   3.015807
    15  H    4.210748   3.630033   3.836819   4.743579   3.591823
    16  H    4.181938   3.209677   3.472028   4.980728   2.672716
                   11         12         13         14         15
    11  C    0.000000
    12  H    1.087169   0.000000
    13  H    1.084134   1.833747   0.000000
    14  C    1.343778   2.145619   2.117476   0.000000
    15  H    2.117550   3.103546   2.462108   1.084124   0.000000
    16  H    2.145386   2.546028   3.103333   1.087122   1.833808
                   16
    16  H    0.000000
 Symmetry turned off by external request.
 Stoichiometry    C6H10
 Framework group  C1[X(C6H10)]
 Deg. of freedom    42
 Full point group                 C1      NOp   1
 Rotational constants (GHZ):      4.2574224      1.8787267      1.4260113
 Leave Link  202 at Sun May 12 20:58:16 2019, MaxMem=  2097152000 cpu:         0.1
 (Enter /mnt/e/g09/l301.exe)
 Standard basis: 6-31G(d) (6D, 7F)
 Ernie: Thresh=  0.10000D-02 Tol=  0.10000D-05 Strict=F.
   110 basis functions,   208 primitive gaussians,   110 cartesian basis functions
    23 alpha electrons       23 beta electrons
       nuclear repulsion energy       202.7374074940 Hartrees.
 IExCor=  402 DFT=T Ex+Corr=B3LYP ExCW=0 ScaHFX=  0.200000
 ScaDFX=  0.800000  0.720000  1.000000  0.810000 ScalE2=  1.000000  1.000000
 IRadAn=      0 IRanWt=     -1 IRanGd=            0 ICorTp=0 IEmpDi=131
 NAtoms=   16 NActive=   16 NUniq=   16 SFac= 1.00D+00 NAtFMM=   60 NAOKFM=F Big=F
 Integral buffers will be    131072 words long.
 Raffenetti 2 integral format.
 Two-electron integral symmetry is turned off.
 R6Disp:  Grimme-D3 Dispersion energy=       -0.0090341475 Hartrees.
 Nuclear repulsion after empirical dispersion term =      202.7283733466 Hartrees.
 Leave Link  301 at Sun May 12 20:58:16 2019, MaxMem=  2097152000 cpu:         0.1
 (Enter /mnt/e/g09/l302.exe)
 NPDir=0 NMtPBC=     1 NCelOv=     1 NCel=       1 NClECP=     1 NCelD=      1
         NCelK=      1 NCelE2=     1 NClLst=     1 CellRange=     0.0.
 One-electron integrals computed using PRISM.
 NBasis=   110 RedAO= T EigKep=  2.68D-03  NBF=   110
 NBsUse=   110 1.00D-06 EigRej= -1.00D+00 NBFU=   110
 Precomputing XC quadrature grid using
 IXCGrd= 4 IRadAn=           0 IRanWt=          -1 IRanGd=           0 AccXCQ= 0.00D+00.
 Generated NRdTot=       0 NPtTot=           0 NUsed=           0 NTot=          32
 NSgBfM=   110   110   110   110   110 MxSgAt=    16 MxSgA2=    16.
 Leave Link  302 at Sun May 12 20:58:16 2019, MaxMem=  2097152000 cpu:         0.6
 (Enter /mnt/e/g09/l303.exe)
 DipDrv:  MaxL=1.
 Leave Link  303 at Sun May 12 20:58:16 2019, MaxMem=  2097152000 cpu:         0.0
 (Enter /mnt/e/g09/l401.exe)
 Initial guess from the checkpoint file:  "/mnt/e/scratch/Gau-7892.chk"
 B after Tr=     0.027309    0.000007    0.002241
         Rot=    1.000000   -0.000017    0.000060    0.000003 Ang=  -0.01 deg.
 Guess basis will be translated and rotated to current coordinates.
 JPrj=2 DoOrth=T DoCkMO=T.
 Generating alternative initial guess.
 ExpMin= 1.61D-01 ExpMax= 3.05D+03 ExpMxC= 4.57D+02 IAcc=1 IRadAn=         1 AccDes= 0.00D+00
 Harris functional with IExCor=  402 and IRadAn=       1 diagonalized for initial guess.
 HarFok:  IExCor=  402 AccDes= 0.00D+00 IRadAn=         1 IDoV= 1 UseB2=F ITyADJ=14
 ICtDFT=  3500011 ScaDFX=  1.000000  1.000000  1.000000  1.000000
 FoFCou: FMM=F IPFlag=           0 FMFlag=      100000 FMFlg1=           0
         NFxFlg=           0 DoJE=T BraDBF=F KetDBF=T FulRan=T
         wScrn=  0.000000 ICntrl=     500 IOpCl=  0 I1Cent=   200000004 NGrid=           0
         NMat0=    1 NMatS0=      1 NMatT0=    0 NMatD0=    1 NMtDS0=    0 NMtDT0=    0
 Symmetry not used in FoFCou.
 Harris En= -234.653978202318    
 Leave Link  401 at Sun May 12 20:58:17 2019, MaxMem=  2097152000 cpu:         1.1
 (Enter /mnt/e/g09/l502.exe)
 Closed shell SCF:
 Using DIIS extrapolation, IDIIS=  1040.
 Two-electron integral symmetry not used.
 Keep R1 ints in memory in canonical form, NReq=19626885.
 IVT=       56422 IEndB=       56422 NGot=  2097152000 MDV=  2078457014
 LenX=  2078457014 LenY=  2078444473
 Requested convergence on RMS density matrix=1.00D-08 within 128 cycles.
 Requested convergence on MAX density matrix=1.00D-06.
 Requested convergence on             energy=1.00D-06.
 No special actions if energy rises.
 FoFCou: FMM=F IPFlag=           0 FMFlag=           0 FMFlg1=           0
         NFxFlg=           0 DoJE=F BraDBF=F KetDBF=F FulRan=T
         wScrn=  0.000000 ICntrl=     600 IOpCl=  0 I1Cent=           0 NGrid=           0
         NMat0=    1 NMatS0=   6105 NMatT0=    0 NMatD0=    1 NMtDS0=    0 NMtDT0=    0
 Symmetry not used in FoFCou.
 Integral accuracy reduced to 1.0D-05 until final iterations.

 Cycle   1  Pass 0  IDiag  1:
 E= -234.542273400506    
 DIIS: error= 1.58D-02 at cycle   1 NSaved=   1.
 NSaved= 1 IEnMin= 1 EnMin= -234.542273400506     IErMin= 1 ErrMin= 1.58D-02
 ErrMax= 1.58D-02  0.00D+00 EMaxC= 1.00D-01 BMatC= 1.24D-02 BMatP= 1.24D-02
 IDIUse=3 WtCom= 8.42D-01 WtEn= 1.58D-01
 Coeff-Com:  0.100D+01
 Coeff-En:   0.100D+01
 Coeff:      0.100D+01
 Recover alternate guess density for next cycle.
 RMSDP=4.71D-03 MaxDP=7.20D-02              OVMax= 0.00D+00

 Cycle   2  Pass 0  IDiag  1:
 E= -234.356718160179     Delta-E=        0.185555240327 Rises=F Damp=F
 Switch densities from cycles 1 and 2 for lowest energy.
 DIIS: error= 4.86D-02 at cycle   2 NSaved=   2.
 NSaved= 2 IEnMin= 1 EnMin= -234.542273400506     IErMin= 1 ErrMin= 1.58D-02
 ErrMax= 4.86D-02  0.00D+00 EMaxC= 1.00D+00 BMatC= 1.91D-01 BMatP= 1.24D-02
 IDIUse=1 WtCom= 1.00D+00 WtEn= 0.00D+00
 Coeff-Com:  0.941D+00 0.593D-01
 Coeff:      0.941D+00 0.593D-01
 Gap=     0.190 Goal=   None    Shift=    0.000
[...]
 ! A22   A(10,16,14)            32.7973         -DE/DX =    0.0                 !
 ! D1    D(3,1,2,12)           -90.8722         -DE/DX =    0.0                 !
 ! D2    D(4,1,2,12)            89.8401         -DE/DX =    0.0                 !
 ! D3    D(2,1,4,5)            176.7223         -DE/DX =    0.0                 !
 ! D4    D(2,1,4,6)             -1.8914         -DE/DX =    0.0                 !
 ! D5    D(3,1,4,5)             -2.532          -DE/DX =    0.0                 !
 ! D6    D(3,1,4,6)            178.8543         -DE/DX =    0.0                 !
 ! D7    D(1,2,12,11)          -66.4011         -DE/DX =    0.0                 !
 ! D8    D(1,4,6,7)            -30.2593         -DE/DX =    0.0                 !
 ! D9    D(1,4,6,9)            150.8403         -DE/DX =    0.0                 !
 ! D10   D(5,4,6,7)            151.0915         -DE/DX =    0.0                 !
 ! D11   D(5,4,6,9)            -27.8088         -DE/DX =    0.0                 !
 ! D12   D(4,6,7,8)            178.6069         -DE/DX =    0.0                 !
 ! D13   D(4,6,7,10)            -2.9112         -DE/DX =    0.0                 !
 ! D14   D(9,6,7,8)             -2.5235         -DE/DX =    0.0                 !
 ! D15   D(9,6,7,10)           175.9584         -DE/DX =    0.0                 !
 ! D16   D(6,7,10,16)          -98.2719         -DE/DX =    0.0                 !
 ! D17   D(8,7,10,16)           80.277          -DE/DX =    0.0                 !
 ! D18   D(7,10,16,14)          72.8909         -DE/DX =    0.0                 !
 ! D19   D(13,11,12,2)          32.6582         -DE/DX =    0.0                 !
 ! D20   D(14,11,12,2)        -147.4677         -DE/DX =    0.0                 !
 ! D21   D(12,11,14,15)        179.8775         -DE/DX =    0.0                 !
 ! D22   D(12,11,14,16)         -0.0107         -DE/DX =    0.0                 !
 ! D23   D(13,11,14,15)         -0.2545         -DE/DX =    0.0                 !
 ! D24   D(13,11,14,16)        179.8572         -DE/DX =    0.0                 !
 ! D25   D(11,14,16,10)        107.3314         -DE/DX =    0.0                 !
 ! D26   D(15,14,16,10)        -72.5617         -DE/DX =    0.0                 !
 --------------------------------------------------------------------------------
 GradGradGradGradGradGradGradGradGradGradGradGradGradGradGradGradGradGrad

 Leave Link  103 at Sun May 12 21:01:11 2019, MaxMem=  2097152000 cpu:         0.1
 (Enter /mnt/e/g09/l9999.exe)
 1\1\GINC-DESKTOP-P4HQ21A\Freq\RB3LYP\6-31G(d)\C6H10\XINYAN\12-May-2019
 \0\\#P Geom=AllCheck Guess=TCheck SCRF=Check GenChk RB3LYP/6-31G(d) Fr
 eq\\Title\\0,1\C,1.2545661397,-1.6549947207,0.5665317623\H,1.031788401
 4,-1.3259351781,1.5785667057\H,1.2331773647,-2.7254356209,0.3832164539
 \C,1.5557753795,-0.78332687,-0.4058276231\H,1.8239028046,-1.1701697691
 ,-1.3896121854\C,1.5879733796,0.6799529499,-0.2645500885\C,0.829715200
 8,1.3993299354,0.5737271985\H,0.9258444418,2.4795625333,0.6380455074\H
 ,2.2844698773,1.2026016029,-0.9211087461\H,0.0741332256,0.9372939661,1
 .2031648087\C,-2.3841312776,-0.475215931,-0.0948188292\H,-3.2162992886
 ,-1.0880448969,0.2457234794\H,-1.407532419,-0.9522921825,-0.1260822287
 \C,-2.5516397247,0.7954093223,-0.4581823438\H,-1.714733546,1.401667305
 5,-0.7954378358\H,-3.5259869593,1.2789235539,-0.4317730354\\Version=ES
 64L-G09RevD.01\HF=-234.5837555\RMSD=5.405e-09\RMSF=3.299e-06\ZeroPoint
 =0.1378748\Thermal=0.1474319\Dipole=0.1307097,-0.0029489,-0.0243774\Di
 poleDeriv=-0.3238567,0.0450545,-0.091416,-0.0097161,-0.0516425,0.05353
 41,-0.0124648,0.0713794,0.0171965,0.1345842,-0.0146841,0.051331,0.0064
 183,0.0246197,-0.0687326,0.0444691,-0.0363061,-0.0551064,0.1442257,-0.
 0304217,0.016716,-0.0069548,-0.0967623,-0.0149907,0.0193608,-0.0352021
 ,0.0501245,-0.1415595,-0.0556003,-0.0119183,-0.0068829,0.1496095,0.044
 0482,-0.1262155,0.1806573,0.1347384,0.0983689,0.0026044,0.0649178,0.01
 57258,-0.0081189,-0.0516741,0.0667878,-0.0666507,-0.0900941,0.036096,0
 .1256863,-0.1446723,0.037545,0.1457601,-0.0303447,-0.1175194,-0.139259
 8,-0.0518563,-0.1526363,0.0507883,-0.1260798,0.1118703,-0.0255493,0.01
 5883,-0.1641807,-0.0114542,-0.1565791,0.0891293,-0.0226227,0.0357974,-
 0.0154726,-0.0984942,-0.0280362,0.0496297,-0.0225835,0.0991911,0.01341
 89,-0.0656819,0.1004087,-0.0564492,-0.0251164,0.0427957,0.1150412,0.04
 03596,0.0089732,0.0723313,-0.0306915,0.0933128,-0.0568199,-0.0008438,0
 .0416297,0.1263061,0.0222785,0.0663283,0.0802945,0.0540103,-0.076041,0
 .0321703,-0.0186828,-0.0764486,-0.1138772,-0.0844076,-0.2192886,-0.065
 5376,-0.078759,0.0502478,-0.057675,-0.0003868,0.0529505,0.0542331,0.05
 10658,0.1010965,0.0169125,0.0426188,0.0291399,0.0460719,0.0065311,0.02
 61477,0.0448468,0.0330866,0.1018758,0.1016422,-0.052366,-0.0623047,-0.
 0432698,-0.0302985,-0.0691137,-0.0978419,-0.0505823,-0.2306182,-0.0010
 607,-0.0589165,0.061437,-0.0595056,0.0044798,0.0396692,0.0881152,0.030
 5309,0.1047318,-0.1023526,0.088981,0.0091236,0.0629442,0.0248952,0.022
 6825,0.0233097,0.0170882,0.1192866\Polar=53.6643538,-4.2892444,83.4416
 777,-11.0894274,-5.2306136,47.4486626\PG=C01 [X(C6H10)]\NImag=0\\0.147
 18499,0.05935667,0.73499846,-0.15601544,-0.08403461,0.71683164,-0.0472
 1423,0.01627126,0.05589580,0.03752781,0.01615243,-0.08755692,-0.084810
 67,-0.01756824,0.08337566,0.05719989,-0.08084210,-0.29905600,-0.065270
 23,0.08723068,0.31868124,-0.03382069,-0.00503252,0.00596247,0.00234103
 ,0.00622823,0.00116658,0.02435861,-0.00581773,-0.33375018,-0.05064549,
 -0.00050617,-0.00470214,0.00045082,0.00736978,0.35392534,0.00566827,-0
 .05506432,-0.06664764,-0.00084891,-0.02603669,-0.00090057,-0.00660819,
 0.05282522,0.06196331,-0.07405737,-0.06579436,0.08706213,0.00310066,-0
 .00434451,0.00572902,0.00347669,0.00046321,0.00009628,0.19288642,-0.06
 002877,-0.28509403,0.19316655,-0.00114848,0.01174609,-0.00974942,-0.00
 627217,-0.01634240,0.02632850,0.05084943,0.66291547,0.08630147,0.20411
 359,-0.34082444,0.00766638,0.02006424,-0.01926825,-0.00018469,-0.00628
 687,0.00728690,-0.17868029,-0.09881706,0.71399337,0.00387784,0.0045642
 2,0.00634931,0.01090482,-0.00157245,0.00327862,-0.00697286,0.00037307,
 -0.00205565,-0.05923571,0.01836233,0.06663100,0.04663407,-0.00547149,0
 .01021865,0.02172997,-0.00127362,-0.00208674,0.00315843,0.00031562,0.0
 0091011,0.00024789,0.02111012,-0.09246750,-0.08979430,-0.02342820,0.09
 842958,0.00695800,-0.00906867,-0.02076864,0.00425482,0.00294407,-0.000
 74753,-0.00260637,0.00060788,0.00041518,0.06456297,-0.08816017,-0.2734
 0894,-0.07386883,0.09299379,0.29343196,0.00686067,-0.00510521,-0.00184
 049,-0.00783238,0.00028547,-0.00186411,0.01179980,-0.00194848,0.004104
 46,-0.07592794,-0.01598606,0.01467880,0.00230027,0.00970931,0.00148240
 ,0.44543512,-0.00823895,-0.03572184,0.01357837,0.00348851,0.00030452,-
 0.00101444,-0.00216151,0.00068151,0.00048019,-0.00250124,-0.23848491,-
 0.02781482,0.00212933,-0.00973607,0.00158555,-0.03613699,0.63249414,-0
 .00210145,0.02058051,0.01262044,-0.00085885,0.00040933,0.00046842,0.00
 215509,0.00302164,-0.00258047,0.01998417,-0.00494756,-0.09754394,0.000
 80745,-0.02960042,0.00022230,-0.32980995,0.09082168,0.49153618,-0.0013
 1961,-0.00359242,0.00195082,0.00084701,0.00011068,0.00044719,-0.001012
 69,-0.00018575,0.00011113,0.00770636,0.01121303,-0.00102687,0.00207758
 ,-0.00227122,-0.00067514,-0.22365785,0.12020254,0.18758999,0.46060988,
 0.00314058,0.00164151,-0.00555620,0.00076792,-0.00049093,0.00065349,-0
 .00130880,0.00026177,-0.00020616,0.01858059,-0.02951435,-0.01986322,-0
 .00104588,-0.00518106,-0.00065507,0.12766954,-0.22851161,-0.14812029,-
 0.02066408,0.70373629,0.00241093,0.00658827,-0.00368551,-0.00160253,0.
 00043469,-0.00009197,0.00078668,0.00009399,0.00008282,-0.00042478,-0.0
 1904093,0.00549979,-0.00036637,0.00085888,0.00048688,0.18665074,-0.137
 73447,-0.25004009,-0.33713354,0.10756791,0.44082720,0.00014706,-0.0007
 7131,-0.00062297,-0.00003498,-0.00008215,-0.00020866,-0.00029722,0.000
 03978,-0.00014072,0.00350379,-0.00136684,0.00881516,-0.00007279,0.0017
 3665,0.00008021,0.00532426,0.02141356,0.00107259,-0.04868232,-0.032567
 90,0.01121264,0.04195740,-0.00006631,0.00034432,-0.00007037,-0.0000800
 3,0.00018325,-0.00003778,0.00006226,-0.00007659,0.00001655,0.00090391,
 0.00133309,-0.00318220,0.00021677,-0.00091366,0.00006406,-0.00365835,-
 0.01309342,0.00118736,-0.02904644,-0.33945036,-0.01604420,0.03016074,0
 .35890892,0.00008163,-0.00087565,-0.00123053,0.00026517,-0.00024931,0.
 00036926,-0.00072289,-0.00005162,0.00019412,0.00718482,-0.00204742,0.0
 0506428,-0.00021967,0.00006537,-0.00015353,-0.00079092,-0.02072048,0.0
 0228179,0.01195049,-0.01313286,-0.04594521,-0.01433239,0.01963315,0.03
 891015,0.00041580,-0.00073923,0.00031147,0.00012594,0.00002974,0.00007
 206,-0.00024847,0.00020417,0.00007254,0.00284998,0.00333607,0.00059637
 ,0.00005451,-0.00013809,-0.00009664,-0.15566331,-0.08665906,0.10998146
 ,-0.00988434,-0.00891085,0.01427140,-0.00342896,0.00102446,-0.00461747
 ,0.16067797,-0.00003302,-0.00475948,-0.00324928,-0.00046785,0.00028600
 ,-0.00004889,0.00098533,-0.00100463,0.00137697,-0.02020557,-0.01403623
 ,0.02120072,0.00060562,0.00053919,-0.00046286,-0.08690318,-0.12052579,
 0.07685939,0.01316249,0.01122824,-0.01201232,0.00058636,0.00096722,0.0
 0037138,0.09054139,0.12843955,0.00055408,-0.00144860,0.00167004,0.0002
 3317,-0.00018251,0.00020390,-0.00001019,0.00002846,0.00016465,-0.00152
 623,-0.00066753,0.00354356,-0.00076697,0.00071087,0.00056100,0.1123133
 9,0.07383232,-0.14869498,0.01494902,0.01175986,-0.00817665,-0.00408062
 ,0.00031417,-0.00320892,-0.12854343,-0.08115871,0.14961318,-0.00037500
 ,0.00065870,0.00116673,0.00010971,0.00075297,-0.00064456,0.00031029,-0
 .00004098,-0.00040280,-0.00277389,0.00111119,-0.00444247,0.00034486,-0
 .00028377,-0.00009873,-0.00812618,-0.01143121,0.01101218,-0.18508858,-
 0.08642459,0.12602406,0.00156243,0.00061313,0.00104372,0.00492021,0.00
 163363,0.00661343,0.19012611,0.00056894,-0.00040909,-0.00021326,0.0005
 7510,-0.00104626,0.00025442,-0.00024866,0.00015279,0.00003547,0.000847
 95,-0.00001780,0.00043563,-0.00018315,0.00027974,0.00014923,0.01209849
 ,0.01278785,-0.01020296,-0.08871992,-0.11401647,0.06940344,-0.01919491
 ,-0.00821066,0.01704728,0.00125745,-0.00114064,-0.00324830,0.09365752,
 0.11206604,-0.00072658,0.00000749,0.00117554,0.00035395,0.00019606,0.0
 0040183,0.00005536,-0.00004975,0.00002440,-0.00398094,0.00389782,-0.00
 425265,0.00013293,-0.00034664,-0.00001923,0.01515548,0.00703526,-0.008
 29865,0.12248817,0.06732927,-0.13842735,-0.00178672,-0.00182420,0.0037
 1924,0.00791161,-0.00290380,0.00426678,-0.13990197,-0.07343151,0.14167
 221,0.00025539,0.00031411,-0.00004688,-0.00008408,-0.00003077,-0.00013
 394,-0.00013914,0.00014935,-0.00005544,0.00022893,-0.00029679,-0.00006
 870,-0.00011161,0.00004470,0.00002172,-0.00027344,-0.00008728,0.000178
 50,-0.00014765,0.00035634,-0.00030069,0.00014609,0.00010181,0.00009218
 ,0.00013753,0.00008294,0.00009651,-0.00012910,-0.00041122,0.00004968,0
 .63088929,-0.00045009,-0.00007638,0.00023158,0.00007739,0.00000438,0.0
 0007311,-0.00008356,0.00003632,-0.00001206,-0.00029174,0.00029479,-0.0
 0026436,0.00001808,-0.00001842,0.00002262,0.00022603,0.00025437,-0.000
 15320,0.00004733,-0.00017760,0.00022160,0.00000695,0.00002215,0.000033
 62,-0.00003111,-0.00005177,-0.00005188,-0.00042187,0.00015360,-0.00010
 943,-0.05614705,0.80806956,-0.00018265,-0.00010525,0.00003589,0.000195
 23,0.00003054,0.00022122,-0.00000225,0.00005807,0.00000839,-0.00000606
 ,0.00002358,0.00003481,-0.00010686,0.00003128,0.00007942,-0.00010822,-
 0.00012747,0.00021855,0.00020490,0.00023295,-0.00059345,-0.00008964,-0
 .00010370,0.00009648,-0.00004897,0.00002388,0.00012358,0.00006101,-0.0
 0005157,0.00012947,-0.07773646,-0.20597767,0.18654056,-0.00039186,-0.0
 0021518,0.00020168,0.00005709,-0.00002736,0.00004454,0.00000757,0.0000
 2324,0.00002306,-0.00022102,0.00016410,-0.00033827,0.00002647,-0.00001
 040,0.00000525,0.00010132,0.00017312,-0.00000700,0.00004726,0.00000666
 ,-0.00013753,-0.00005093,-0.00005175,0.00003253,-0.00001529,-0.0000266
 5,0.00002807,-0.00002401,0.00006608,0.00015962,-0.22738858,-0.11878047
 ,0.07146073,0.23278131,0.00017076,0.00012743,-0.00005455,-0.00003112,-
 0.00000372,-0.00002067,0.00000488,0.00000031,-0.00001133,0.00012182,-0
 .00013294,0.00009781,-0.00000455,0.00001415,-0.00000043,-0.00004615,-0
 .00013837,-0.00004564,-0.00014100,0.00009173,-0.00003050,0.00004979,0.
 00003272,0.00003376,0.00002618,0.00001933,0.00000683,0.00002933,-0.000
 05926,0.00003623,-0.11498715,-0.14033389,0.05300673,0.12909709,0.14763
 889,0.00012842,0.00002807,-0.00000565,-0.00003125,-0.00001531,-0.00001
 756,-0.00000340,-0.00001059,0.00000222,-0.00002229,-0.00009026,0.00005
 018,-0.00000697,-0.00000036,-0.00001830,-0.00001014,0.00003358,0.00003
 836,0.00003854,-0.00008234,-0.00007294,-0.00005186,-0.00002347,-0.0000
 0357,0.00001156,0.00000414,0.00000455,-0.00000926,0.00001903,0.0000619
 3,0.07037129,0.05369579,-0.06563194,-0.07779976,-0.06152341,0.05744011
 ,-0.00091776,0.00051072,-0.00053399,0.00002251,0.00006095,0.00009226,0
 .00006937,-0.00004712,-0.00000311,-0.00133052,-0.00039087,0.00027812,0
 .00012069,-0.00000145,-0.00000621,-0.00010962,-0.00015474,0.00005560,0
 .00006107,0.00023180,-0.00027813,0.00001738,0.00002010,0.00012073,0.00
 005056,0.00008187,0.00005538,-0.00013659,-0.00016344,0.00007203,-0.290
 34053,0.11139807,0.01218142,-0.01482715,0.01002995,0.00005020,0.302998
 98,0.00007441,-0.00020357,0.00014886,-0.00002103,0.00001786,-0.0000879
 9,0.00022747,-0.00017144,0.00001781,0.00021767,0.00041563,0.00006046,0
 .00000628,-0.00000920,-0.00003000,0.00006456,-0.00012097,-0.00004334,-
 0.00003288,-0.00027287,0.00037673,0.00011645,0.00009857,-0.00011172,0.
 00002761,-0.00004264,-0.00007387,-0.00005862,-0.00015104,-0.00030680,0
 .10680471,-0.10814678,0.00216027,-0.01581709,0.00969497,0.00073955,-0.
 12155767,0.11186464,-0.00017441,0.00014740,-0.00009333,-0.00026959,-0.
 00002335,-0.00025640,-0.00000093,-0.00003041,-0.00000932,0.00000670,-0
 .00004122,-0.00015470,0.00018103,-0.00003738,-0.00007998,0.00005692,0.
 00009809,-0.00014966,-0.00021466,-0.00000192,0.00034437,0.00010124,0.0
 0007158,-0.00005898,0.00002944,0.00000065,-0.00006293,-0.00003571,-0.0
 0021024,-0.00015855,0.01351224,0.00122650,-0.04014202,0.00806087,-0.00
 411532,0.00217967,-0.01305053,-0.00424808,0.02974117,-0.00037321,-0.00
 039672,0.00013476,0.00008788,0.00000570,0.00009553,0.00010465,-0.00007
 184,0.00003664,-0.00027430,0.00023736,-0.00018028,0.00000346,-0.000020
 08,-0.00000901,0.00016084,0.00007369,0.00001905,-0.00063553,0.00000039
 ,-0.00046595,-0.00013841,-0.00019074,-0.00007036,-0.00003836,-0.000049
 57,0.00004547,-0.00038877,-0.00000967,-0.00001872,-0.12076516,0.060396
 52,-0.00487046,0.00721632,-0.02628612,0.00772227,0.00132785,0.02988242
 ,-0.00851729,0.63076754,0.00047996,-0.00000596,-0.00017490,-0.00003006
 ,-0.00001292,0.00003538,-0.00004480,0.00002131,0.00002049,-0.00015773,
 -0.00029060,0.00005188,-0.00006962,0.00000411,-0.00000170,-0.00004980,
 0.00029863,0.00073514,0.00061484,0.00003387,-0.00066982,-0.00008589,-0
 .00009124,0.00001205,-0.00000985,0.00004194,0.00013810,0.00031544,-0.0
 0021916,0.00020464,0.05962594,-0.53626280,0.14106489,0.00407073,-0.013
 77113,0.00508719,0.00015632,-0.00959483,0.00478560,-0.05394530,0.80785
 824,0.00003879,0.00020104,-0.00001715,-0.00000052,-0.00000878,0.000014
 48,0.00000995,0.00005127,-0.00001482,0.00009839,-0.00007890,-0.0001281
 6,-0.00002806,0.00008348,0.00005597,-0.00012570,-0.00048218,-0.0002577
 5,-0.00079771,0.00066753,-0.00014401,0.00019398,0.00006540,0.00008493,
 -0.00000423,0.00002692,0.00008063,-0.00022314,-0.00036102,0.00012625,-
 0.00486863,0.14143079,-0.08839012,-0.00164132,0.01055903,0.00206924,0.
 00058269,-0.00100297,0.00521332,-0.07731035,-0.20708263,0.18603413,-0.
 00014763,-0.00005907,-0.00002449,0.00002265,0.00000729,-0.00000756,-0.
 00000512,-0.00001638,0.00000415,0.00003211,0.00023887,0.00007375,0.000
 02349,-0.00002966,-0.00001749,-0.00040460,0.00009813,0.00015419,-0.000
 51349,-0.00010675,-0.00055919,0.00002982,0.00000650,-0.00006988,0.0000
 3457,0.00000601,0.00000982,-0.00032170,-0.00009239,-0.00014593,0.00738
 447,0.00380411,-0.00177907,0.00157448,0.00221281,0.00130564,0.00098599
 ,-0.00061251,-0.00147461,-0.23058517,-0.12096374,0.07286824,0.23723430
 ,-0.00007734,0.00005957,0.00003900,0.00000383,-0.00001032,-0.00000890,
 -0.00000986,0.00003370,-0.00000517,0.00007687,-0.00013548,-0.00008514,
 0.00003353,0.00000203,0.00001344,-0.00011180,-0.00030541,-0.00037335,-
 0.00044852,0.00042788,-0.00000491,-0.00008477,-0.00008162,-0.00002881,
 0.00000765,0.00001326,0.00003392,-0.00009246,-0.00008012,0.00020462,-0
 .02600959,-0.01391222,0.01061781,0.00199829,-0.00343139,0.00476181,-0.
 00044300,0.00013072,-0.00270379,-0.11613242,-0.14007224,0.05285463,0.1
 3019554,0.14773886,-0.00011918,-0.00020049,0.00000808,0.00002836,0.000
 02205,-0.00000126,-0.00001613,-0.00003893,0.00000602,-0.00004082,0.000
 20733,0.00013425,0.00003275,-0.00009122,-0.00003896,0.00012196,0.00033
 824,0.00009436,-0.00004196,-0.00051210,-0.00002436,-0.00012141,-0.0000
 4457,-0.00009757,0.00003379,-0.00002145,-0.00009598,-0.00007595,0.0003
 8204,-0.00044931,0.00752586,0.00493697,0.00198413,0.00146907,0.0047785
 9,0.01143090,-0.00159403,-0.00264802,-0.00759102,0.07100975,0.05341125
 ,-0.06560515,-0.07810471,-0.06104380,0.05805717,-0.00012438,0.00003035
 ,0.00004911,0.00001855,-0.00000799,0.00000338,0.00002819,0.00001185,-0
 .00000171,0.00003581,-0.00002238,-0.00011948,0.00002492,0.00001158,0.0
 0001304,0.00001303,-0.00020789,-0.00023303,-0.00040711,0.00027504,-0.0
 0008774,0.00001738,-0.00001606,0.00005233,0.00001167,0.00000018,0.0000
 2910,-0.00000980,-0.00004819,0.00018203,0.00033758,0.00023140,0.000827
 36,0.00110702,-0.00024651,-0.00169301,0.00200776,0.00067821,0.00178929
 ,-0.28646964,0.11009356,0.01120762,-0.01534418,0.01109405,-0.00010735,
 0.29875320,0.00023995,0.00018752,-0.00008498,-0.00005741,-0.00000782,-
 0.00004617,-0.00003169,0.00002422,-0.00001336,0.00012357,-0.00018882,0
 .00008365,-0.00000538,0.00001508,-0.00000174,-0.00010738,-0.00018263,-
 0.00012829,-0.00024866,0.00019397,-0.00000836,0.00004349,0.00002733,0.
 00002125,0.00003347,0.00002645,0.00000688,-0.00001841,-0.00008953,0.00
 006072,0.03048993,-0.00985530,-0.00088432,-0.00067040,0.00025118,-0.00
 262341,0.00026851,-0.00350903,0.00508187,0.10650638,-0.10793721,0.0030
 7640,-0.01468875,0.00962278,0.00052411,-0.12187720,0.11142180,-0.00002
 176,-0.00002667,-0.00001274,-0.00001099,-0.00000504,-0.00002081,0.0000
 1890,-0.00002369,0.00000480,-0.00004306,0.00001669,-0.00002607,0.00000
 630,-0.00000966,-0.00001761,-0.00001462,0.00009059,0.00008514,0.000159
 63,-0.00008084,-0.00003951,-0.00004082,-0.00002179,-0.00002193,0.00001
 904,-0.00000674,0.00000758,-0.00008653,-0.00000768,0.00002810,-0.00863
 723,0.00469602,0.00528502,-0.00156155,-0.00271712,-0.00752721,0.001977
 56,0.00504912,0.01127835,0.01237894,0.00238243,-0.03912179,0.00776715,
 -0.00427138,0.00218870,-0.01191095,-0.00506425,0.02790998\\0.00000294,
 0.00000239,-0.00000467,0.00000297,-0.00000003,-0.00000132,0.00000514,0
 .00000240,-0.00000507,0.00000076,0.00000383,-0.00000032,0.00000233,0.0
 0000683,-0.00000223,-0.00000248,0.00000223,0.00000189,-0.00000061,-0.0
 0000060,0.00000139,-0.00000490,0.00000100,0.00000416,-0.00000198,0.000
 00624,0.00000203,-0.00000195,-0.00000093,0.00000192,-0.00000009,-0.000
 00650,-0.00000119,0.00000313,-0.00000685,-0.00000025,0.00000233,-0.000
 00220,-0.00000157,-0.00000230,0.00000300,-0.00000080,-0.00000082,-0.00
 000385,0.00000313,-0.00000445,-0.00000698,0.00000291\\\@


 You don't have to suffer to be a poet.
 Adolescence is enough suffering for anyone.
                             -- John Ciardi
 Job cpu time:       0 days  0 hours  2 minutes  2.1 seconds.
 File lengths (MBytes):  RWF=     26 Int=      0 D2E=      0 Chk=      2 Scr=      1
 Normal termination of Gaussian 09 at Sun May 12 21:01:11 2019.
