 Entering Gaussian System, Link 0=g09
 Input=ts.gjf
 Output=ts.log
 Initial command:
 /mnt/e/g09/l1.exe "/mnt/e/scratch/Gau-3886.inp" -scrdir="/mnt/e/scratch/"
 Entering Link 1 = /mnt/e/g09/l1.exe PID=      3888.
  
 Copyright (c) 1988,1990,1992,1993,1995,1998,2003,2009,2013,
            Gaussian, Inc.  All Rights Reserved.
  
 This is part of the Gaussian(R) 09 program.  It is based on
 the Gaussian(R) 03 system (copyright 2003, Gaussian, Inc.),
 the Gaussian(R) 98 system (copyright 1998, Gaussian, Inc.),
 the Gaussian(R) 94 system (copyright 1995, Gaussian, Inc.),
 the Gaussian 92(TM) system (copyright 1992, Gaussian, Inc.),
 the Gaussian 90(TM) system (copyright 1990, Gaussian, Inc.),
 the Gaussian 88(TM) system (copyright 1988, Gaussian, Inc.),
 the Gaussian 86(TM) system (copyright 1986, Carnegie Mellon
 University), and the Gaussian 82(TM) system (copyright 1983,
 Carnegie Mellon University). Gaussian is a federally registered
 trademark of Gaussian, Inc.
  
 This software contains proprietary and confidential information,
 including trade secrets, belonging to Gaussian, Inc.
  
 This software is provided under written license and may be
 used, copied, transmitted, or stored only in accord with that
 written license.
  
 The following legend is applicable only to US Government
 contracts under FAR:
  
                    RESTRICTED RIGHTS LEGEND
  
 Use, reproduction and disclosure by the US Government is
 subject to restrictions as set forth in subparagraphs (a)
 and (c) of the Commercial Computer Software - Restricted
 Rights clause in FAR 52.227-19.
  
 Gaussian, Inc.
 340 Quinnipiac St., Bldg. 40, Wallingford CT 06492
  
  
 ---------------------------------------------------------------
 Warning -- This program may not be used in any manner that
 competes with the business of Gaussian, Inc. or will provide
 assistance to any competitor of Gaussian, Inc.  The licensee
 of this program is prohibited from giving any competitor of
 Gaussian, Inc. access to this program.  By using this program,
 the user acknowledges that Gaussian, Inc. is engaged in the
 business of creating and licensing software in the field of
 computational chemistry and represents and warrants to the
 licensee that it is not a competitor of Gaussian, Inc. and that
 it will not use this program in any manner prohibited above.
 ---------------------------------------------------------------
  

 Cite this work as:
 Gaussian 09, Revision D.01,
 M. J. Frisch, G. W. Trucks, H. B. Schlegel, G. E. Scuseria, 
 M. A. Robb, J. R. Cheeseman, G. Scalmani, V. Barone, B. Mennucci, 
 G. A. Petersson, H. Nakatsuji, M. Caricato, X. Li, H. P. Hratchian, 
 A. F. Izmaylov, J. Bloino, G. Zheng, J. L. Sonnenberg, M. Hada, 
 M. Ehara, K. Toyota, R. Fukuda, J. Hasegawa, M. Ishida, T. Nakajima, 
 Y. Honda, O. Kitao, H. Nakai, T. Vreven, J. A. Montgomery, Jr., 
 J. E. Peralta, F. Ogliaro, M. Bearpark, J. J. Heyd, E. Brothers, 
 K. N. Kudin, V. N. Staroverov, T. Keith, R. Kobayashi, J. Normand, 
 K. Raghavachari, A. Rendell, J. C. Burant, S. S. Iyengar, J. Tomasi, 
 M. Cossi, N. Rega, J. M. Millam, M. Klene, J. E. Knox, J. B. Cross, 
 V. Bakken, C. Adamo, J. Jaramillo, R. Gomperts, R. E. Stratmann, 
 O. Yazyev, A. J. Austin, R. Cammi, C. Pomelli, J. W. Ochterski, 
 R. L. Martin, K. Morokuma, V. G. Zakrzewski, G. A. Voth, 
 P. Salvador, J. J. Dannenberg, S. Dapprich, A. D. Daniels, 
 O. Farkas, J. B. Foresman, J. V. Ortiz, J. Cioslowski, 
 and D. J. Fox, Gaussian, Inc., Wallingford CT, 2013.
 
 ******************************************
 Gaussian 09:  ES64L-G09RevD.01 24-Apr-2013
                12-May-2019 
 ******************************************
 %nproc=8
 Will use up to    8 processors via shared memory.
 %mem=2000mw
 ------------------------------------------------------
 #p B3LYP/6-31G* em=gd3 opt(ts,calcfc,noeigentest) freq
 ------------------------------------------------------
 1/5=1,10=4,11=1,14=-1,18=20,26=3,38=1/1,3;
 2/9=110,12=2,17=6,18=5,40=1/2;
 3/5=1,6=6,7=1,11=2,16=1,25=1,30=1,71=2,74=-5,124=31,140=1/1,2,3;
 4//1;
 5/5=2,38=5/2;
 8/6=4,10=90,11=11/1;
 11/6=1,8=1,9=11,15=111,16=1/1,2,10;
 10/6=1,13=1/2;
 6/7=2,8=2,9=2,10=2,28=1/1;
 7/10=1,18=20,25=1/1,2,3,16;
 1/5=1,10=4,11=1,14=-1,18=20,26=3/3(2);
 2/9=110/2;
 99//99;
 2/9=110/2;
 3/5=1,6=6,7=1,11=2,16=1,25=1,30=1,71=1,74=-5,124=31/1,2,3;
 4/5=5,16=3,69=1/1;
 5/5=2,38=5/2;
 7//1,2,3,16;
 1/5=1,11=1,14=-1,18=20,26=3/3(-5);
 2/9=110/2;
 6/7=2,8=2,9=2,10=2,19=2,28=1/1;
 99/9=1/99;
 Leave Link    1 at Sun May 12 20:52:31 2019, MaxMem=  2097152000 cpu:         0.8
 (Enter /mnt/e/g09/l101.exe)
 -----
 Title
 -----
 Symbolic Z-matrix:
 Charge =  0 Multiplicity = 1
 C                    -2.03422   0.09506   0. 
 H                    -1.58591  -0.75534  -0.46983 
 H                    -3.10422   0.09506   0. 
 C                    -1.35895   1.27003   0. 
 H                    -1.89211   2.19774   0. 
 C                     0.18105   1.27003   0. 
 C                     0.94841  -0.06517   0. 
 H                     2.01841  -0.06517   0. 
 H                     0.65508   2.08361   0. 
 H                     0.57816  -0.83251  -0.40089 
 C                    -1.26948  -0.94913   1.9138 
 H                    -1.82788  -1.8102    1.61108 
 H                    -1.78256  -0.06098   2.21849 
 C                     0.08538  -0.97956   1.91261 
 H                     0.64379  -0.11848   2.21533 
 H                     0.59847  -1.8677    1.60791 
 
 Add virtual bond connecting atoms C11        and C1         Dist= 4.37D+00.
 Add virtual bond connecting atoms H12        and H2         Dist= 4.43D+00.
 Add virtual bond connecting atoms H13        and C1         Dist= 4.23D+00.
 Add virtual bond connecting atoms C14        and C7         Dist= 4.33D+00.
 Add virtual bond connecting atoms C14        and H10        Dist= 4.48D+00.
 NAtoms=     16 NQM=       16 NQMF=       0 NMMI=      0 NMMIF=      0
                NMic=       0 NMicF=      0.
                    Isotopes and Nuclear Properties:
 (Nuclear quadrupole moments (NQMom) in fm**2, nuclear magnetic moments (NMagM)
  in nuclear magnetons)

  Atom         1           2           3           4           5           6           7           8           9          10
 IAtWgt=          12           1           1          12           1          12          12           1           1           1
 AtmWgt=  12.0000000   1.0078250   1.0078250  12.0000000   1.0078250  12.0000000  12.0000000   1.0078250   1.0078250   1.0078250
 NucSpn=           0           1           1           0           1           0           0           1           1           1
 AtZEff=   0.0000000   0.0000000   0.0000000   0.0000000   0.0000000   0.0000000   0.0000000   0.0000000   0.0000000   0.0000000
 NQMom=    0.0000000   0.0000000   0.0000000   0.0000000   0.0000000   0.0000000   0.0000000   0.0000000   0.0000000   0.0000000
 NMagM=    0.0000000   2.7928460   2.7928460   0.0000000   2.7928460   0.0000000   0.0000000   2.7928460   2.7928460   2.7928460
 AtZNuc=   6.0000000   1.0000000   1.0000000   6.0000000   1.0000000   6.0000000   6.0000000   1.0000000   1.0000000   1.0000000

  Atom        11          12          13          14          15          16
 IAtWgt=          12           1           1          12           1           1
 AtmWgt=  12.0000000   1.0078250   1.0078250  12.0000000   1.0078250   1.0078250
 NucSpn=           0           1           1           0           1           1
 AtZEff=   0.0000000   0.0000000   0.0000000   0.0000000   0.0000000   0.0000000
 NQMom=    0.0000000   0.0000000   0.0000000   0.0000000   0.0000000   0.0000000
 NMagM=    0.0000000   2.7928460   2.7928460   0.0000000   2.7928460   2.7928460
 AtZNuc=   6.0000000   1.0000000   1.0000000   6.0000000   1.0000000   1.0000000
 Leave Link  101 at Sun May 12 20:52:31 2019, MaxMem=  2097152000 cpu:         5.3
 (Enter /mnt/e/g09/l103.exe)

 GradGradGradGradGradGradGradGradGradGradGradGradGradGradGradGradGradGrad
 Berny optimization.
 Initialization pass.
                           ----------------------------
                           !    Initial Parameters    !
                           ! (Angstroms and Degrees)  !
 --------------------------                            --------------------------
 ! Name  Definition              Value          Derivative Info.                !
 --------------------------------------------------------------------------------
 ! R1    R(1,2)                  1.07           calculate D2E/DX2 analytically  !
 ! R2    R(1,3)                  1.07           calculate D2E/DX2 analytically  !
 ! R3    R(1,4)                  1.3552         calculate D2E/DX2 analytically  !
 ! R4    R(1,11)                 2.3104         calculate D2E/DX2 analytically  !
 ! R5    R(1,13)                 2.2382         calculate D2E/DX2 analytically  !
 ! R6    R(2,12)                 2.3455         calculate D2E/DX2 analytically  !
 ! R7    R(4,5)                  1.07           calculate D2E/DX2 analytically  !
 ! R8    R(4,6)                  1.54           calculate D2E/DX2 analytically  !
 ! R9    R(6,7)                  1.54           calculate D2E/DX2 analytically  !
 ! R10   R(6,9)                  0.9416         calculate D2E/DX2 analytically  !
 ! R11   R(7,8)                  1.07           calculate D2E/DX2 analytically  !
 ! R12   R(7,10)                 0.9416         calculate D2E/DX2 analytically  !
 ! R13   R(7,14)                 2.2889         calculate D2E/DX2 analytically  !
 ! R14   R(10,14)                2.37           calculate D2E/DX2 analytically  !
 ! R15   R(11,12)                1.07           calculate D2E/DX2 analytically  !
 ! R16   R(11,13)                1.07           calculate D2E/DX2 analytically  !
 ! R17   R(11,14)                1.3552         calculate D2E/DX2 analytically  !
 ! R18   R(14,15)                1.07           calculate D2E/DX2 analytically  !
 ! R19   R(14,16)                1.07           calculate D2E/DX2 analytically  !
 ! A1    A(2,1,3)              114.7706         calculate D2E/DX2 analytically  !
 ! A2    A(2,1,4)              118.7047         calculate D2E/DX2 analytically  !
 ! A3    A(2,1,11)              82.29           calculate D2E/DX2 analytically  !
 ! A4    A(2,1,13)             109.4337         calculate D2E/DX2 analytically  !
 ! A5    A(3,1,4)              119.8865         calculate D2E/DX2 analytically  !
 ! A6    A(3,1,11)             109.3299         calculate D2E/DX2 analytically  !
 ! A7    A(3,1,13)              96.456          calculate D2E/DX2 analytically  !
 ! A8    A(4,1,11)             103.1157         calculate D2E/DX2 analytically  !
 ! A9    A(4,1,13)              90.2533         calculate D2E/DX2 analytically  !
 ! A10   A(1,2,12)              85.6786         calculate D2E/DX2 analytically  !
 ! A11   A(1,4,5)              120.2269         calculate D2E/DX2 analytically  !
 ! A12   A(1,4,6)              119.8865         calculate D2E/DX2 analytically  !
 ! A13   A(5,4,6)              119.8865         calculate D2E/DX2 analytically  !
 ! A14   A(4,6,7)              119.8865         calculate D2E/DX2 analytically  !
 ! A15   A(4,6,9)              120.2269         calculate D2E/DX2 analytically  !
 ! A16   A(7,6,9)              119.8865         calculate D2E/DX2 analytically  !
 ! A17   A(6,7,8)              119.8865         calculate D2E/DX2 analytically  !
 ! A18   A(6,7,10)             120.7053         calculate D2E/DX2 analytically  !
 ! A19   A(6,7,14)              99.119          calculate D2E/DX2 analytically  !
 ! A20   A(8,7,10)             113.1549         calculate D2E/DX2 analytically  !
 ! A21   A(8,7,14)             112.1512         calculate D2E/DX2 analytically  !
 ! A22   A(1,11,12)             87.5134         calculate D2E/DX2 analytically  !
 ! A23   A(1,11,14)            109.8979         calculate D2E/DX2 analytically  !
 ! A24   A(12,11,13)           119.8865         calculate D2E/DX2 analytically  !
 ! A25   A(12,11,14)           120.2269         calculate D2E/DX2 analytically  !
 ! A26   A(13,11,14)           119.8865         calculate D2E/DX2 analytically  !
 ! A27   A(2,12,11)             80.5165         calculate D2E/DX2 analytically  !
 ! A28   A(7,14,11)            111.6366         calculate D2E/DX2 analytically  !
 ! A29   A(7,14,15)             73.629          calculate D2E/DX2 analytically  !
 ! A30   A(7,14,16)             84.9997         calculate D2E/DX2 analytically  !
 ! A31   A(10,14,11)           101.9662         calculate D2E/DX2 analytically  !
 ! A32   A(10,14,15)            96.7611         calculate D2E/DX2 analytically  !
 ! A33   A(10,14,16)            70.9627         calculate D2E/DX2 analytically  !
 ! A34   A(11,14,15)           120.2269         calculate D2E/DX2 analytically  !
 ! A35   A(11,14,16)           119.8865         calculate D2E/DX2 analytically  !
 ! A36   A(15,14,16)           119.8865         calculate D2E/DX2 analytically  !
 ! D1    D(3,1,2,12)           -85.4647         calculate D2E/DX2 analytically  !
 ! D2    D(4,1,2,12)           123.0918         calculate D2E/DX2 analytically  !
 ! D3    D(11,1,2,12)           22.3176         calculate D2E/DX2 analytically  !
 ! D4    D(13,1,2,12)           21.64           calculate D2E/DX2 analytically  !
 ! D5    D(2,1,4,5)            149.9591         calculate D2E/DX2 analytically  !
 ! D6    D(2,1,4,6)            -30.0409         calculate D2E/DX2 analytically  !
 ! D7    D(3,1,4,5)              0.0            calculate D2E/DX2 analytically  !
 ! D8    D(3,1,4,6)            180.0            calculate D2E/DX2 analytically  !
 ! D9    D(11,1,4,5)          -121.7295         calculate D2E/DX2 analytically  !
 ! D10   D(11,1,4,6)            58.2705         calculate D2E/DX2 analytically  !
 ! D11   D(13,1,4,5)           -97.5983         calculate D2E/DX2 analytically  !
 ! D12   D(13,1,4,6)            82.4017         calculate D2E/DX2 analytically  !
 ! D13   D(2,1,11,12)          -56.1848         calculate D2E/DX2 analytically  !
 ! D14   D(2,1,11,14)           65.1592         calculate D2E/DX2 analytically  !
 ! D15   D(3,1,11,12)           57.4294         calculate D2E/DX2 analytically  !
 ! D16   D(3,1,11,14)          178.7734         calculate D2E/DX2 analytically  !
 ! D17   D(4,1,11,12)         -173.9672         calculate D2E/DX2 analytically  !
 ! D18   D(4,1,11,14)          -52.6232         calculate D2E/DX2 analytically  !
 ! D19   D(1,2,12,11)          -55.4658         calculate D2E/DX2 analytically  !
 ! D20   D(1,4,6,7)              0.0            calculate D2E/DX2 analytically  !
 ! D21   D(1,4,6,9)            180.0            calculate D2E/DX2 analytically  !
 ! D22   D(5,4,6,7)            180.0            calculate D2E/DX2 analytically  !
 ! D23   D(5,4,6,9)              0.0            calculate D2E/DX2 analytically  !
 ! D24   D(4,6,7,8)            180.0            calculate D2E/DX2 analytically  !
 ! D25   D(4,6,7,10)            29.6814         calculate D2E/DX2 analytically  !
 ! D26   D(4,6,7,14)           -57.8118         calculate D2E/DX2 analytically  !
 ! D27   D(9,6,7,8)              0.0            calculate D2E/DX2 analytically  !
 ! D28   D(9,6,7,10)          -150.3186         calculate D2E/DX2 analytically  !
 ! D29   D(9,6,7,14)           122.1882         calculate D2E/DX2 analytically  !
 ! D30   D(6,7,14,11)           51.1224         calculate D2E/DX2 analytically  !
 ! D31   D(6,7,14,15)          -65.4895         calculate D2E/DX2 analytically  !
 ! D32   D(6,7,14,16)          171.3473         calculate D2E/DX2 analytically  !
 ! D33   D(8,7,14,11)          178.7281         calculate D2E/DX2 analytically  !
 ! D34   D(8,7,14,15)           62.1162         calculate D2E/DX2 analytically  !
 ! D35   D(8,7,14,16)          -61.0471         calculate D2E/DX2 analytically  !
 ! D36   D(1,11,12,2)           22.383          calculate D2E/DX2 analytically  !
 ! D37   D(13,11,12,2)          90.7309         calculate D2E/DX2 analytically  !
 ! D38   D(14,11,12,2)         -89.2691         calculate D2E/DX2 analytically  !
 ! D39   D(1,11,14,7)           -2.1795         calculate D2E/DX2 analytically  !
 ! D40   D(1,11,14,10)         -24.2954         calculate D2E/DX2 analytically  !
 ! D41   D(1,11,14,15)          80.9389         calculate D2E/DX2 analytically  !
 ! D42   D(1,11,14,16)         -99.0611         calculate D2E/DX2 analytically  !
 ! D43   D(12,11,14,7)          96.8816         calculate D2E/DX2 analytically  !
 ! D44   D(12,11,14,10)         74.7657         calculate D2E/DX2 analytically  !
 ! D45   D(12,11,14,15)        180.0            calculate D2E/DX2 analytically  !
 ! D46   D(12,11,14,16)          0.0            calculate D2E/DX2 analytically  !
 ! D47   D(13,11,14,7)         -83.1184         calculate D2E/DX2 analytically  !
 ! D48   D(13,11,14,10)       -105.2343         calculate D2E/DX2 analytically  !
 ! D49   D(13,11,14,15)          0.0            calculate D2E/DX2 analytically  !
 ! D50   D(13,11,14,16)        180.0            calculate D2E/DX2 analytically  !
 --------------------------------------------------------------------------------
 Trust Radius=3.00D-01 FncErr=1.00D-07 GrdErr=1.00D-06
 Number of steps in this run=    100 maximum allowed number of steps=    100.
 Search for a saddle point of order  1.
 GradGradGradGradGradGradGradGradGradGradGradGradGradGradGradGradGradGrad

 Leave Link  103 at Sun May 12 20:52:32 2019, MaxMem=  2097152000 cpu:         0.1
 (Enter /mnt/e/g09/l202.exe)
                          Input orientation:                          
 ---------------------------------------------------------------------
 Center     Atomic      Atomic             Coordinates (Angstroms)
 Number     Number       Type             X           Y           Z
 ---------------------------------------------------------------------
      1          6           0       -2.034221    0.095057    0.000000
      2          1           0       -1.585906   -0.755338   -0.469833
      3          1           0       -3.104221    0.095057    0.000000
      4          6           0       -1.358946    1.270034    0.000000
      5          1           0       -1.892110    2.197739    0.000000
      6          6           0        0.181054    1.270034    0.000000
      7          6           0        0.948411   -0.065167    0.000000
      8          1           0        2.018411   -0.065167    0.000000
      9          1           0        0.655080    2.083613    0.000000
     10          1           0        0.578157   -0.832506   -0.400891
     11          6           0       -1.269476   -0.949130    1.913795
     12          1           0       -1.827881   -1.810202    1.611079
     13          1           0       -1.782562   -0.060985    2.218495
     14          6           0        0.085382   -0.979557    1.912609
     15          1           0        0.643787   -0.118484    2.215326
     16          1           0        0.598468   -1.867701    1.607910
 ---------------------------------------------------------------------
                    Distance matrix (angstroms):
                    1          2          3          4          5
     1  C    0.000000
     2  H    1.070000   0.000000
     3  H    1.070000   1.802552   0.000000
     4  C    1.355200   2.091503   2.103938   0.000000
     5  H    2.107479   3.005856   2.427032   1.070000   0.000000
     6  C    2.507591   2.728557   3.489068   1.540000   2.271265
     7  C    2.986932   2.668303   4.055798   2.665832   3.631708
     8  H    4.055798   3.699754   5.125137   3.631708   4.518066
     9  H    3.344651   3.647246   4.252845   2.172144   2.549745
    10  H    2.801000   2.166535   3.818506   2.886825   3.930053
    11  C    2.310362   2.412336   2.849426   2.931775   3.735381
    12  H    2.503630   2.345524   2.802611   3.507611   4.320104
    13  H    2.238169   2.783506   2.587054   2.621599   3.167894
    14  C    3.050505   2.918820   3.871231   3.287068   4.202827
    15  H    3.482096   3.547843   4.358994   3.293417   4.086971
    16  H    3.656343   3.213387   4.488619   4.032645   5.031517
                    6          7          8          9         10
     6  C    0.000000
     7  C    1.540000   0.000000
     8  H    2.271265   1.070000   0.000000
     9  H    0.941600   2.168709   2.544784   0.000000
    10  H    2.176943   0.941600   1.680433   2.944551   0.000000
    11  C    3.269761   3.059906   3.905663   4.069896   2.963970
    12  H    4.014879   3.653562   4.520474   4.891060   3.285259
    13  H    3.247940   3.518515   4.401037   3.932317   3.609629
    14  C    2.954300   2.288886   2.868934   3.655904   2.369965
    15  H    2.655141   2.236808   2.607701   3.123624   2.712697
    16  H    3.550351   2.440689   2.801917   4.266317   2.259938
                   11         12         13         14         15
    11  C    0.000000
    12  H    1.070000   0.000000
    13  H    1.070000   1.852234   0.000000
    14  C    1.355200   2.107479   2.103938   0.000000
    15  H    2.107479   3.055514   2.427032   1.070000   0.000000
    16  H    2.103938   2.427032   3.050630   1.070000   1.852234
                   16
    16  H    0.000000
 Stoichiometry    C6H10
 Framework group  C1[X(C6H10)]
 Deg. of freedom    42
 Full point group                 C1      NOp   1
 Largest Abelian subgroup         C1      NOp   1
 Largest concise Abelian subgroup C1      NOp   1
                         Standard orientation:                         
 ---------------------------------------------------------------------
 Center     Atomic      Atomic             Coordinates (Angstroms)
 Number     Number       Type             X           Y           Z
 ---------------------------------------------------------------------
      1          6           0        0.669467   -1.353972    0.520859
      2          1           0        0.271931   -0.924084    1.416437
      3          1           0        0.832891   -2.410500    0.564919
      4          6           0        1.442200   -0.584099   -0.283347
      5          1           0        2.215174   -1.029146   -0.874400
      6          6           0        1.206992    0.936512   -0.346761
      7          6           0        0.094487    1.577047    0.503914
      8          1           0       -0.068936    2.633575    0.459854
      9          1           0        1.741063    1.475959   -0.903875
     10          1           0       -0.160847    1.196887    1.326649
     11          6           0       -1.467464   -0.942369   -0.254951
     12          1           0       -1.827634   -1.529457    0.563893
     13          1           0       -0.924749   -1.411166   -1.049047
     14          6           0       -1.696306    0.392917   -0.289746
     15          1           0       -1.336136    0.980005   -1.108590
     16          1           0       -2.239021    0.861714    0.504350
 ---------------------------------------------------------------------
 Rotational constants (GHZ):      4.1204488      3.4244956      2.1813247
 Leave Link  202 at Sun May 12 20:52:32 2019, MaxMem=  2097152000 cpu:         0.0
 (Enter /mnt/e/g09/l301.exe)
 Standard basis: 6-31G(d) (6D, 7F)
 Ernie: Thresh=  0.10000D-02 Tol=  0.10000D-05 Strict=F.
 There are   110 symmetry adapted cartesian basis functions of A   symmetry.
 There are   110 symmetry adapted basis functions of A   symmetry.
   110 basis functions,   208 primitive gaussians,   110 cartesian basis functions
    23 alpha electrons       23 beta electrons
       nuclear repulsion energy       222.0711648266 Hartrees.
 IExCor=  402 DFT=T Ex+Corr=B3LYP ExCW=0 ScaHFX=  0.200000
 ScaDFX=  0.800000  0.720000  1.000000  0.810000 ScalE2=  1.000000  1.000000
 IRadAn=      0 IRanWt=     -1 IRanGd=            0 ICorTp=0 IEmpDi=131
 NAtoms=   16 NActive=   16 NUniq=   16 SFac= 1.00D+00 NAtFMM=   60 NAOKFM=F Big=F
 Integral buffers will be    131072 words long.
 Raffenetti 2 integral format.
 Two-electron integral symmetry is turned on.
 R6Disp:  Grimme-D3 Dispersion energy=       -0.0122709507 Hartrees.
 Nuclear repulsion after empirical dispersion term =      222.0588938759 Hartrees.
 Leave Link  301 at Sun May 12 20:52:32 2019, MaxMem=  2097152000 cpu:         0.1
 (Enter /mnt/e/g09/l302.exe)
 NPDir=0 NMtPBC=     1 NCelOv=     1 NCel=       1 NClECP=     1 NCelD=      1
         NCelK=      1 NCelE2=     1 NClLst=     1 CellRange=     0.0.
 One-electron integrals computed using PRISM.
 NBasis=   110 RedAO= T EigKep=  2.70D-03  NBF=   110
 NBsUse=   110 1.00D-06 EigRej= -1.00D+00 NBFU=   110
 Precomputing XC quadrature grid using
 IXCGrd= 4 IRadAn=           0 IRanWt=          -1 IRanGd=           0 AccXCQ= 0.00D+00.
 Generated NRdTot=       0 NPtTot=           0 NUsed=           0 NTot=          32
 NSgBfM=   110   110   110   110   110 MxSgAt=    16 MxSgA2=    16.
 Leave Link  302 at Sun May 12 20:52:32 2019, MaxMem=  2097152000 cpu:         0.6
 (Enter /mnt/e/g09/l303.exe)
 DipDrv:  MaxL=1.
 Leave Link  303 at Sun May 12 20:52:32 2019, MaxMem=  2097152000 cpu:         0.1
 (Enter /mnt/e/g09/l401.exe)
 ExpMin= 1.61D-01 ExpMax= 3.05D+03 ExpMxC= 4.57D+02 IAcc=1 IRadAn=         1 AccDes= 0.00D+00
 Harris functional with IExCor=  402 and IRadAn=       1 diagonalized for initial guess.
 HarFok:  IExCor=  402 AccDes= 0.00D+00 IRadAn=         1 IDoV= 1 UseB2=F ITyADJ=14
 ICtDFT=  3500011 ScaDFX=  1.000000  1.000000  1.000000  1.000000
 FoFCou: FMM=F IPFlag=           0 FMFlag=      100000 FMFlg1=           0
         NFxFlg=           0 DoJE=T BraDBF=F KetDBF=T FulRan=T
         wScrn=  0.000000 ICntrl=     500 IOpCl=  0 I1Cent=   200000004 NGrid=           0
         NMat0=    1 NMatS0=      1 NMatT0=    0 NMatD0=    1 NMtDS0=    0 NMtDT0=    0
 Petite list used in FoFCou.
 Harris En= -234.559644135263    
 JPrj=0 DoOrth=F DoCkMO=F.
 Leave Link  401 at Sun May 12 20:52:32 2019, MaxMem=  2097152000 cpu:         1.0
 (Enter /mnt/e/g09/l502.exe)
 Closed shell SCF:
 Using DIIS extrapolation, IDIIS=  1040.
 Integral symmetry usage will be decided dynamically.
 Keep R1 ints in memory in canonical form, NReq=19627039.
 IVT=       56576 IEndB=       56576 NGot=  2097152000 MDV=  2078456860
 LenX=  2078456860 LenY=  2078444319
 Requested convergence on RMS density matrix=1.00D-08 within 128 cycles.
 Requested convergence on MAX density matrix=1.00D-06.
 Requested convergence on             energy=1.00D-06.
 No special actions if energy rises.
 FoFCou: FMM=F IPFlag=           0 FMFlag=           0 FMFlg1=           0
         NFxFlg=           0 DoJE=F BraDBF=F KetDBF=F FulRan=T
         wScrn=  0.000000 ICntrl=     600 IOpCl=  0 I1Cent=           0 NGrid=           0
         NMat0=    1 NMatS0=   6105 NMatT0=    0 NMatD0=    1 NMtDS0=    0 NMtDT0=    0
 Symmetry not used in FoFCou.
 Integral accuracy reduced to 1.0D-05 until final iterations.

 Cycle   1  Pass 0  IDiag  1:
 E= -234.268105087215    
 DIIS: error= 3.86D-02 at cycle   1 NSaved=   1.
 NSaved= 1 IEnMin= 1 EnMin= -234.268105087215     IErMin= 1 ErrMin= 3.86D-02
 ErrMax= 3.86D-02  0.00D+00 EMaxC= 1.00D-01 BMatC= 1.79D-01 BMatP= 1.79D-01
 IDIUse=3 WtCom= 6.14D-01 WtEn= 3.86D-01
 Coeff-Com:  0.100D+01
 Coeff-En:   0.100D+01
 Coeff:      0.100D+01
 Gap=     0.181 Goal=   None    Shift=    0.000
 GapD=    0.181 DampG=1.000 DampE=0.500 DampFc=0.5000 IDamp=-1.
 Damping current iteration by 5.00D-01
 RMSDP=8.48D-03 MaxDP=1.21D-01              OVMax= 1.95D-01

 Cycle   2  Pass 0  IDiag  1:
 E= -234.363868653262     Delta-E=       -0.095763566047 Rises=F Damp=T
 DIIS: error= 6.17D-03 at cycle   2 NSaved=   2.
 NSaved= 2 IEnMin= 2 EnMin= -234.363868653262     IErMin= 2 ErrMin= 6.17D-03
 ErrMax= 6.17D-03  0.00D+00 EMaxC= 1.00D-01 BMatC= 9.48D-03 BMatP= 1.79D-01
 IDIUse=3 WtCom= 9.38D-01 WtEn= 6.17D-02
 Coeff-Com:  0.266D-01 0.973D+00
 Coeff-En:   0.331D-01 0.967D+00
 Coeff:      0.270D-01 0.973D+00
 Gap=     0.189 Goal=   None    Shift=    0.000
 RMSDP=1.92D-03 MaxDP=3.01D-02 DE=-9.58D-02 OVMax= 1.51D-01

 Cycle   3  Pass 0  IDiag  1:
 E= -234.461320002075     Delta-E=       -0.097451348813 Rises=F Damp=F
 DIIS: error= 1.00D-02 at cycle   3 NSaved=   3.
 NSaved= 3 IEnMin= 3 EnMin= -234.461320002075     IErMin= 2 ErrMin= 6.17D-03
 ErrMax= 1.00D-02  0.00D+00 EMaxC= 1.00D-01 BMatC= 9.47D-03 BMatP= 9.48D-03
 IDIUse=3 WtCom= 9.00D-01 WtEn= 1.00D-01
 Coeff-Com: -0.238D-01 0.510D+00 0.514D+00
 Coeff-En:   0.000D+00 0.000D+00 0.100D+01
 Coeff:     -0.214D-01 0.459D+00 0.563D+00
 Gap=     0.178 Goal=   None    Shift=    0.000
 RMSDP=1.56D-03 MaxDP=3.12D-02 DE=-9.75D-02 OVMax= 9.27D-02

 Cycle   4  Pass 0  IDiag  1:
 E= -234.467903152637     Delta-E=       -0.006583150561 Rises=F Damp=F
 DIIS: error= 6.00D-03 at cycle   4 NSaved=   4.
 NSaved= 4 IEnMin= 4 EnMin= -234.467903152637     IErMin= 4 ErrMin= 6.00D-03
 ErrMax= 6.00D-03  0.00D+00 EMaxC= 1.00D-01 BMatC= 4.44D-03 BMatP= 9.47D-03
 IDIUse=3 WtCom= 9.40D-01 WtEn= 6.00D-02
 Coeff-Com: -0.123D-01 0.108D+00 0.404D+00 0.500D+00
 Coeff-En:   0.000D+00 0.000D+00 0.349D+00 0.651D+00
 Coeff:     -0.116D-01 0.102D+00 0.401D+00 0.509D+00
 Gap=     0.175 Goal=   None    Shift=    0.000
 RMSDP=6.60D-04 MaxDP=1.49D-02 DE=-6.58D-03 OVMax= 4.26D-02

 Cycle   5  Pass 0  IDiag  1:
 E= -234.473053594918     Delta-E=       -0.005150442281 Rises=F Damp=F
 DIIS: error= 1.11D-03 at cycle   5 NSaved=   5.
 NSaved= 5 IEnMin= 5 EnMin= -234.473053594918     IErMin= 5 ErrMin= 1.11D-03
 ErrMax= 1.11D-03  0.00D+00 EMaxC= 1.00D-01 BMatC= 1.42D-04 BMatP= 4.44D-03
 IDIUse=3 WtCom= 9.89D-01 WtEn= 1.11D-02
 Coeff-Com: -0.440D-02 0.273D-01 0.187D+00 0.270D+00 0.520D+00
 Coeff-En:   0.000D+00 0.000D+00 0.000D+00 0.000D+00 0.100D+01
 Coeff:     -0.435D-02 0.270D-01 0.185D+00 0.267D+00 0.526D+00
 Gap=     0.176 Goal=   None    Shift=    0.000
 RMSDP=1.49D-04 MaxDP=4.29D-03 DE=-5.15D-03 OVMax= 9.45D-03

 Cycle   6  Pass 0  IDiag  1:
 E= -234.473170612664     Delta-E=       -0.000117017746 Rises=F Damp=F
 DIIS: error= 6.95D-04 at cycle   6 NSaved=   6.
 NSaved= 6 IEnMin= 6 EnMin= -234.473170612664     IErMin= 6 ErrMin= 6.95D-04
 ErrMax= 6.95D-04  0.00D+00 EMaxC= 1.00D-01 BMatC= 3.77D-05 BMatP= 1.42D-04
 IDIUse=3 WtCom= 9.93D-01 WtEn= 6.95D-03
 Coeff-Com: -0.116D-02 0.316D-02 0.688D-01 0.108D+00 0.360D+00 0.462D+00
 Coeff-En:   0.000D+00 0.000D+00 0.000D+00 0.000D+00 0.247D+00 0.753D+00
 Coeff:     -0.115D-02 0.314D-02 0.684D-01 0.107D+00 0.359D+00 0.464D+00
 Gap=     0.175 Goal=   None    Shift=    0.000
 RMSDP=6.28D-05 MaxDP=1.50D-03 DE=-1.17D-04 OVMax= 4.06D-03

 Cycle   7  Pass 0  IDiag  1:
 E= -234.473213724475     Delta-E=       -0.000043111812 Rises=F Damp=F
 DIIS: error= 1.19D-04 at cycle   7 NSaved=   7.
 NSaved= 7 IEnMin= 7 EnMin= -234.473213724475     IErMin= 7 ErrMin= 1.19D-04
 ErrMax= 1.19D-04  0.00D+00 EMaxC= 1.00D-01 BMatC= 1.57D-06 BMatP= 3.77D-05
 IDIUse=3 WtCom= 9.99D-01 WtEn= 1.19D-03
 Coeff-Com: -0.382D-03 0.257D-03 0.279D-01 0.447D-01 0.176D+00 0.264D+00
 Coeff-Com:  0.488D+00
 Coeff-En:   0.000D+00 0.000D+00 0.000D+00 0.000D+00 0.000D+00 0.000D+00
 Coeff-En:   0.100D+01
 Coeff:     -0.382D-03 0.257D-03 0.279D-01 0.446D-01 0.175D+00 0.264D+00
 Coeff:      0.488D+00
 Gap=     0.175 Goal=   None    Shift=    0.000
 RMSDP=1.38D-05 MaxDP=3.14D-04 DE=-4.31D-05 OVMax= 7.00D-04

 Cycle   8  Pass 0  IDiag  1:
 E= -234.473215351730     Delta-E=       -0.000001627255 Rises=F Damp=F
 DIIS: error= 3.13D-05 at cycle   8 NSaved=   8.
 NSaved= 8 IEnMin= 8 EnMin= -234.473215351730     IErMin= 8 ErrMin= 3.13D-05
 ErrMax= 3.13D-05  0.00D+00 EMaxC= 1.00D-01 BMatC= 1.35D-07 BMatP= 1.57D-06
 IDIUse=1 WtCom= 1.00D+00 WtEn= 0.00D+00
 Coeff-Com:  0.147D-04-0.385D-03 0.229D-02 0.371D-02 0.289D-01 0.549D-01
 Coeff-Com:  0.255D+00 0.656D+00
 Coeff:      0.147D-04-0.385D-03 0.229D-02 0.371D-02 0.289D-01 0.549D-01
 Coeff:      0.255D+00 0.656D+00
 Gap=     0.175 Goal=   None    Shift=    0.000
 RMSDP=3.79D-06 MaxDP=8.53D-05 DE=-1.63D-06 OVMax= 1.69D-04

 Initial convergence to 1.0D-05 achieved.  Increase integral accuracy.
 Cycle   9  Pass 1  IDiag  1:
 E= -234.473220839184     Delta-E=       -0.000005487454 Rises=F Damp=F
 DIIS: error= 1.34D-05 at cycle   1 NSaved=   1.
 NSaved= 1 IEnMin= 1 EnMin= -234.473220839184     IErMin= 1 ErrMin= 1.34D-05
 ErrMax= 1.34D-05  0.00D+00 EMaxC= 1.00D-01 BMatC= 2.87D-08 BMatP= 2.87D-08
 IDIUse=1 WtCom= 1.00D+00 WtEn= 0.00D+00
 Coeff-Com:  0.100D+01
 Coeff:      0.100D+01
 Gap=     0.175 Goal=   None    Shift=    0.000
 RMSDP=3.79D-06 MaxDP=8.53D-05 DE=-5.49D-06 OVMax= 8.42D-05

 Cycle  10  Pass 1  IDiag  1:
 E= -234.473220877584     Delta-E=       -0.000000038400 Rises=F Damp=F
 DIIS: error= 5.90D-06 at cycle   2 NSaved=   2.
 NSaved= 2 IEnMin= 2 EnMin= -234.473220877584     IErMin= 2 ErrMin= 5.90D-06
 ErrMax= 5.90D-06  0.00D+00 EMaxC= 1.00D-01 BMatC= 6.47D-09 BMatP= 2.87D-08
 IDIUse=1 WtCom= 1.00D+00 WtEn= 0.00D+00
 Coeff-Com:  0.233D+00 0.767D+00
 Coeff:      0.233D+00 0.767D+00
 Gap=     0.175 Goal=   None    Shift=    0.000
 RMSDP=1.32D-06 MaxDP=2.50D-05 DE=-3.84D-08 OVMax= 6.76D-05

 Cycle  11  Pass 1  IDiag  1:
 E= -234.473220876286     Delta-E=        0.000000001298 Rises=F Damp=F
 DIIS: error= 7.07D-06 at cycle   3 NSaved=   3.
 NSaved= 3 IEnMin= 2 EnMin= -234.473220877584     IErMin= 2 ErrMin= 5.90D-06
 ErrMax= 7.07D-06  0.00D+00 EMaxC= 1.00D-01 BMatC= 8.04D-09 BMatP= 6.47D-09
 IDIUse=1 WtCom= 1.00D+00 WtEn= 0.00D+00
 Coeff-Com: -0.139D-01 0.531D+00 0.483D+00
 Coeff:     -0.139D-01 0.531D+00 0.483D+00
 Gap=     0.175 Goal=   None    Shift=    0.000
 RMSDP=6.97D-07 MaxDP=1.61D-05 DE= 1.30D-09 OVMax= 4.06D-05

 Cycle  12  Pass 1  IDiag  1:
 E= -234.473220884354     Delta-E=       -0.000000008067 Rises=F Damp=F
 DIIS: error= 1.55D-06 at cycle   4 NSaved=   4.
 NSaved= 4 IEnMin= 4 EnMin= -234.473220884354     IErMin= 4 ErrMin= 1.55D-06
 ErrMax= 1.55D-06  0.00D+00 EMaxC= 1.00D-01 BMatC= 1.97D-10 BMatP= 6.47D-09
 IDIUse=1 WtCom= 1.00D+00 WtEn= 0.00D+00
 Coeff-Com: -0.144D-01 0.291D+00 0.277D+00 0.446D+00
 Coeff:     -0.144D-01 0.291D+00 0.277D+00 0.446D+00
 Gap=     0.175 Goal=   None    Shift=    0.000
 RMSDP=1.73D-07 MaxDP=3.24D-06 DE=-8.07D-09 OVMax= 1.21D-05

 Cycle  13  Pass 1  IDiag  1:
 E= -234.473220884543     Delta-E=       -0.000000000190 Rises=F Damp=F
 DIIS: error= 6.60D-07 at cycle   5 NSaved=   5.
 NSaved= 5 IEnMin= 5 EnMin= -234.473220884543     IErMin= 5 ErrMin= 6.60D-07
 ErrMax= 6.60D-07  0.00D+00 EMaxC= 1.00D-01 BMatC= 3.34D-11 BMatP= 1.97D-10
 IDIUse=1 WtCom= 1.00D+00 WtEn= 0.00D+00
 Coeff-Com: -0.667D-02 0.968D-01 0.922D-01 0.304D+00 0.514D+00
 Coeff:     -0.667D-02 0.968D-01 0.922D-01 0.304D+00 0.514D+00
 Gap=     0.175 Goal=   None    Shift=    0.000
 RMSDP=6.26D-08 MaxDP=1.03D-06 DE=-1.90D-10 OVMax= 3.66D-06

 Cycle  14  Pass 1  IDiag  1:
 E= -234.473220884587     Delta-E=       -0.000000000043 Rises=F Damp=F
 DIIS: error= 7.49D-08 at cycle   6 NSaved=   6.
 NSaved= 6 IEnMin= 6 EnMin= -234.473220884587     IErMin= 6 ErrMin= 7.49D-08
 ErrMax= 7.49D-08  0.00D+00 EMaxC= 1.00D-01 BMatC= 7.91D-13 BMatP= 3.34D-11
 IDIUse=1 WtCom= 1.00D+00 WtEn= 0.00D+00
 Coeff-Com: -0.185D-02 0.221D-01 0.191D-01 0.979D-01 0.206D+00 0.657D+00
 Coeff:     -0.185D-02 0.221D-01 0.191D-01 0.979D-01 0.206D+00 0.657D+00
 Gap=     0.175 Goal=   None    Shift=    0.000
 RMSDP=1.42D-08 MaxDP=2.25D-07 DE=-4.34D-11 OVMax= 8.21D-07

 Cycle  15  Pass 1  IDiag  1:
 E= -234.473220884586     Delta-E=        0.000000000000 Rises=F Damp=F
 DIIS: error= 4.80D-08 at cycle   7 NSaved=   7.
 NSaved= 7 IEnMin= 6 EnMin= -234.473220884587     IErMin= 7 ErrMin= 4.80D-08
 ErrMax= 4.80D-08  0.00D+00 EMaxC= 1.00D-01 BMatC= 3.82D-13 BMatP= 7.91D-13
 IDIUse=1 WtCom= 1.00D+00 WtEn= 0.00D+00
 Coeff-Com: -0.287D-03 0.817D-03-0.977D-03 0.201D-01 0.586D-01 0.435D+00
 Coeff-Com:  0.487D+00
 Coeff:     -0.287D-03 0.817D-03-0.977D-03 0.201D-01 0.586D-01 0.435D+00
 Coeff:      0.487D+00
 Gap=     0.175 Goal=   None    Shift=    0.000
 RMSDP=6.92D-09 MaxDP=1.10D-07 DE= 2.84D-13 OVMax= 3.98D-07

 SCF Done:  E(RB3LYP) =  -234.473220885     A.U. after   15 cycles
            NFock= 15  Conv=0.69D-08     -V/T= 2.0086
 KE= 2.324707605778D+02 PE=-9.862826608216D+02 EE= 2.972797854833D+02
 Leave Link  502 at Sun May 12 20:52:34 2019, MaxMem=  2097152000 cpu:        16.8
 (Enter /mnt/e/g09/l801.exe)
 DoSCS=F DFT=T ScalE2(SS,OS)=  1.000000  1.000000
 Range of M.O.s used for correlation:     1   110
 NBasis=   110 NAE=    23 NBE=    23 NFC=     0 NFV=     0
 NROrb=    110 NOA=    23 NOB=    23 NVA=    87 NVB=    87
 Leave Link  801 at Sun May 12 20:52:34 2019, MaxMem=  2097152000 cpu:         0.1
 (Enter /mnt/e/g09/l1101.exe)
 Using compressed storage, NAtomX=    16.
 Will process     17 centers per pass.
 R6Disp: Adding Grimme-D3 dispersion energy 1st derivatives to the gradient.
 Leave Link 1101 at Sun May 12 20:52:35 2019, MaxMem=  2097152000 cpu:         0.6
 (Enter /mnt/e/g09/l1102.exe)
 Symmetrizing basis deriv contribution to polar:
 IMax=3 JMax=2 DiffMx= 0.00D+00
 Leave Link 1102 at Sun May 12 20:52:35 2019, MaxMem=  2097152000 cpu:         0.0
 (Enter /mnt/e/g09/l1110.exe)
 Forming Gx(P) for the SCF density, NAtomX=    16.
 Integral derivatives from FoFJK, PRISM(SPDF).
 Do as many integral derivatives as possible in FoFJK.
 G2DrvN: MDV=    2097151768.
 G2DrvN: will do    17 centers at a time, making    1 passes.
 Calling FoFCou, ICntrl=  3107 FMM=F I1Cent=   0 AccDes= 0.00D+00.
 FoFJK:  IHMeth= 1 ICntrl=    3107 DoSepK=F KAlg= 0 I1Cent=   0 FoldK=F
 IRaf=         0 NMat=   1 IRICut=       1 DoRegI=T DoRafI=F ISym2E= 0.
 FoFCou: FMM=F IPFlag=           0 FMFlag=      100000 FMFlg1=           0
         NFxFlg=           0 DoJE=F BraDBF=F KetDBF=F FulRan=T
         wScrn=  0.000000 ICntrl=    3107 IOpCl=  0 I1Cent=           0 NGrid=           0
         NMat0=    1 NMatS0=      1 NMatT0=    0 NMatD0=    1 NMtDS0=    0 NMtDT0=    0
 Symmetry not used in FoFCou.
 End of G2Drv F.D. properties file   721 does not exist.
 End of G2Drv F.D. properties file   722 does not exist.
 End of G2Drv F.D. properties file   788 does not exist.
 Leave Link 1110 at Sun May 12 20:52:40 2019, MaxMem=  2097152000 cpu:        39.8
 (Enter /mnt/e/g09/l1002.exe)
 Minotr:  Closed shell wavefunction.
          IDoAtm=1111111111111111
          Direct CPHF calculation.
          Differentiating once with respect to nuclear coordinates.
          Requested convergence is 1.0D-08 RMS, and 1.0D-07 maximum.
          Secondary convergence is 1.0D-12 RMS, and 1.0D-12 maximum.
          NewPWx=T KeepS1=F KeepF1=F KeepIn=T MapXYZ=F SortEE=F KeepMc=T.
          MDV=    2097151726 using IRadAn=       2.
 Generate precomputed XC quadrature information.
 Keep R1 ints in memory in canonical form, NReq=19573697.
 FoFCou: FMM=F IPFlag=           0 FMFlag=           0 FMFlg1=           0
         NFxFlg=           0 DoJE=F BraDBF=F KetDBF=F FulRan=T
         wScrn=  0.000000 ICntrl=     600 IOpCl=  0 I1Cent=           0 NGrid=           0
         NMat0=    1 NMatS0=   6105 NMatT0=    0 NMatD0=    1 NMtDS0=    0 NMtDT0=    0
 Symmetry not used in FoFCou.
          Solving linear equations simultaneously, MaxMat=       0.
          There are    51 degrees of freedom in the 1st order CPHF.  IDoFFX=6 NUNeed=     0.
     45 vectors produced by pass  0 Test12= 3.92D-15 1.96D-09 XBig12= 1.01D-01 1.31D-01.
 AX will form    45 AO Fock derivatives at one time.
     45 vectors produced by pass  1 Test12= 3.92D-15 1.96D-09 XBig12= 4.24D-03 2.29D-02.
     45 vectors produced by pass  2 Test12= 3.92D-15 1.96D-09 XBig12= 3.12D-05 1.32D-03.
     45 vectors produced by pass  3 Test12= 3.92D-15 1.96D-09 XBig12= 6.75D-08 3.66D-05.
     45 vectors produced by pass  4 Test12= 3.92D-15 1.96D-09 XBig12= 5.84D-11 9.61D-07.
     23 vectors produced by pass  5 Test12= 3.92D-15 1.96D-09 XBig12= 3.27D-14 2.84D-08.
 InvSVY:  IOpt=1 It=  1 EMax= 3.33D-16
 Solved reduced A of dimension   248 with    51 vectors.
 End of Minotr F.D. properties file   721 does not exist.
 End of Minotr F.D. properties file   722 does not exist.
 End of Minotr F.D. properties file   788 does not exist.
 Leave Link 1002 at Sun May 12 20:52:45 2019, MaxMem=  2097152000 cpu:        39.2
 (Enter /mnt/e/g09/l601.exe)
 Copying SCF densities to generalized density rwf, IOpCl= 0 IROHF=0.

 **********************************************************************

            Population analysis using the SCF density.

 **********************************************************************

 Orbital symmetries:
       Occupied  (A) (A) (A) (A) (A) (A) (A) (A) (A) (A) (A) (A)
                 (A) (A) (A) (A) (A) (A) (A) (A) (A) (A) (A)
       Virtual   (A) (A) (A) (A) (A) (A) (A) (A) (A) (A) (A) (A)
                 (A) (A) (A) (A) (A) (A) (A) (A) (A) (A) (A) (A)
                 (A) (A) (A) (A) (A) (A) (A) (A) (A) (A) (A) (A)
                 (A) (A) (A) (A) (A) (A) (A) (A) (A) (A) (A) (A)
                 (A) (A) (A) (A) (A) (A) (A) (A) (A) (A) (A) (A)
                 (A) (A) (A) (A) (A) (A) (A) (A) (A) (A) (A) (A)
                 (A) (A) (A) (A) (A) (A) (A) (A) (A) (A) (A) (A)
                 (A) (A) (A)
 The electronic state is 1-A.
 Alpha  occ. eigenvalues --  -10.18894 -10.18643 -10.18599 -10.17953 -10.17159
 Alpha  occ. eigenvalues --  -10.17075  -0.78742  -0.74339  -0.71244  -0.62903
 Alpha  occ. eigenvalues --   -0.57834  -0.53932  -0.48138  -0.47145  -0.42411
 Alpha  occ. eigenvalues --   -0.40447  -0.40018  -0.38523  -0.35413  -0.34097
 Alpha  occ. eigenvalues --   -0.31284  -0.22349  -0.20540
 Alpha virt. eigenvalues --   -0.02991   0.01917   0.10088   0.10743   0.12868
 Alpha virt. eigenvalues --    0.15133   0.15242   0.16144   0.17898   0.18864
 Alpha virt. eigenvalues --    0.20545   0.24344   0.25307   0.26979   0.32659
 Alpha virt. eigenvalues --    0.33582   0.39944   0.45329   0.51615   0.53584
 Alpha virt. eigenvalues --    0.55418   0.58062   0.58596   0.59169   0.61594
 Alpha virt. eigenvalues --    0.64504   0.64852   0.66576   0.70129   0.71218
 Alpha virt. eigenvalues --    0.73757   0.84506   0.85311   0.87817   0.88249
 Alpha virt. eigenvalues --    0.89409   0.90998   0.93298   0.96654   0.97580
 Alpha virt. eigenvalues --    0.99462   1.02871   1.03697   1.04157   1.08660
 Alpha virt. eigenvalues --    1.09977   1.18322   1.19295   1.23554   1.38541
 Alpha virt. eigenvalues --    1.41386   1.49636   1.53569   1.55140   1.59706
 Alpha virt. eigenvalues --    1.70301   1.77827   1.81990   1.83295   1.91299
 Alpha virt. eigenvalues --    1.93905   1.97063   2.00895   2.04155   2.08628
 Alpha virt. eigenvalues --    2.11270   2.12173   2.13967   2.18188   2.19095
 Alpha virt. eigenvalues --    2.32015   2.35749   2.42415   2.48854   2.52770
 Alpha virt. eigenvalues --    2.57546   2.61360   2.69457   2.72705   2.79978
 Alpha virt. eigenvalues --    2.95080   4.07835   4.20191   4.27978   4.29223
 Alpha virt. eigenvalues --    4.41789   4.51021
          Condensed to atoms (all electrons):
               1          2          3          4          5          6
     1  C    5.102764   0.377361   0.364027   0.589225  -0.061805  -0.039372
     2  H    0.377361   0.554438  -0.044850  -0.031335   0.006137  -0.014438
     3  H    0.364027  -0.044850   0.573391  -0.030334  -0.007408   0.004875
     4  C    0.589225  -0.031335  -0.030334   4.822221   0.372502   0.491331
     5  H   -0.061805   0.006137  -0.007408   0.372502   0.601016  -0.040709
     6  C   -0.039372  -0.014438   0.004875   0.491331  -0.040709   4.889097
     7  C   -0.020881   0.005250   0.000259  -0.030156   0.003746   0.546357
     8  H    0.000200  -0.000090  -0.000004   0.003106  -0.000060  -0.024207
     9  H    0.006257   0.000075  -0.000195  -0.045676  -0.004516   0.372060
    10  H    0.005414   0.004513  -0.000115  -0.010507  -0.000039  -0.024481
    11  C    0.038197  -0.010508  -0.002360  -0.019655   0.000439  -0.015625
    12  H   -0.003018  -0.002582   0.000033   0.000699  -0.000041   0.000264
    13  H   -0.005388   0.000284  -0.000969  -0.003342   0.000456   0.000711
    14  C   -0.012128  -0.007588   0.000975  -0.012167  -0.000025  -0.021233
    15  H    0.000387   0.000069  -0.000030   0.000907  -0.000015  -0.002844
    16  H    0.000335   0.000405  -0.000018   0.000250   0.000003   0.000432
               7          8          9         10         11         12
     1  C   -0.020881   0.000200   0.006257   0.005414   0.038197  -0.003018
     2  H    0.005250  -0.000090   0.000075   0.004513  -0.010508  -0.002582
     3  H    0.000259  -0.000004  -0.000195  -0.000115  -0.002360   0.000033
     4  C   -0.030156   0.003106  -0.045676  -0.010507  -0.019655   0.000699
     5  H    0.003746  -0.000060  -0.004516  -0.000039   0.000439  -0.000041
     6  C    0.546357  -0.024207   0.372060  -0.024481  -0.015625   0.000264
     7  C    5.131893   0.366669  -0.054522   0.382733  -0.012996   0.000364
     8  H    0.366669   0.565484  -0.003930  -0.053877   0.000977  -0.000021
     9  H   -0.054522  -0.003930   0.597794   0.005649   0.000133   0.000003
    10  H    0.382733  -0.053877   0.005649   0.534665  -0.005100   0.000313
    11  C   -0.012996   0.000977   0.000133  -0.005100   5.023326   0.379476
    12  H    0.000364  -0.000021   0.000003   0.000313   0.379476   0.565375
    13  H    0.000672  -0.000025  -0.000052  -0.000024   0.384080  -0.040289
    14  C    0.039154  -0.001733   0.000477  -0.007550   0.611249  -0.040603
    15  H   -0.005776  -0.000782   0.000375  -0.000098  -0.034696   0.005269
    16  H   -0.003549   0.000256  -0.000052  -0.003451  -0.041281  -0.008823
              13         14         15         16
     1  C   -0.005388  -0.012128   0.000387   0.000335
     2  H    0.000284  -0.007588   0.000069   0.000405
     3  H   -0.000969   0.000975  -0.000030  -0.000018
     4  C   -0.003342  -0.012167   0.000907   0.000250
     5  H    0.000456  -0.000025  -0.000015   0.000003
     6  C    0.000711  -0.021233  -0.002844   0.000432
     7  C    0.000672   0.039154  -0.005776  -0.003549
     8  H   -0.000025  -0.001733  -0.000782   0.000256
     9  H   -0.000052   0.000477   0.000375  -0.000052
    10  H   -0.000024  -0.007550  -0.000098  -0.003451
    11  C    0.384080   0.611249  -0.034696  -0.041281
    12  H   -0.040289  -0.040603   0.005269  -0.008823
    13  H    0.537375  -0.035894  -0.008331   0.005378
    14  C   -0.035894   5.020883   0.383932   0.378901
    15  H   -0.008331   0.383932   0.533904  -0.040254
    16  H    0.005378   0.378901  -0.040254   0.568011
 Mulliken charges:
               1
     1  C   -0.341578
     2  H    0.162860
     3  H    0.142722
     4  C   -0.097068
     5  H    0.130318
     6  C   -0.122218
     7  C   -0.349219
     8  H    0.148037
     9  H    0.126119
    10  H    0.171955
    11  C   -0.295660
    12  H    0.143582
    13  H    0.165359
    14  C   -0.296651
    15  H    0.167983
    16  H    0.143458
 Sum of Mulliken charges =   0.00000
 Mulliken charges with hydrogens summed into heavy atoms:
               1
     1  C   -0.035995
     4  C    0.033250
     6  C    0.003901
     7  C   -0.029227
    11  C    0.013281
    14  C    0.014791
 APT charges:
               1
     1  C   -0.820145
     2  H    0.312464
     3  H    0.539820
     4  C   -0.533104
     5  H    0.538150
     6  C   -0.572975
     7  C   -0.839519
     8  H    0.553818
     9  H    0.504931
    10  H    0.349200
    11  C   -0.723105
    12  H    0.429861
    13  H    0.282510
    14  C   -0.731920
    15  H    0.284947
    16  H    0.425068
 Sum of APT charges =   0.00000
 APT charges with hydrogens summed into heavy atoms:
               1
     1  C    0.032139
     4  C    0.005045
     6  C   -0.068044
     7  C    0.063499
    11  C   -0.010735
    14  C   -0.021904
 Electronic spatial extent (au):  <R**2>=            625.8073
 Charge=              0.0000 electrons
 Dipole moment (field-independent basis, Debye):
    X=              0.1663    Y=             -0.0015    Z=              0.3655  Tot=              0.4016
 Quadrupole moment (field-independent basis, Debye-Ang):
   XX=            -40.4374   YY=            -35.3043   ZZ=            -37.3565
   XY=             -1.3000   XZ=             -3.6688   YZ=             -0.4633
 Traceless Quadrupole moment (field-independent basis, Debye-Ang):
   XX=             -2.7380   YY=              2.3950   ZZ=              0.3429
   XY=             -1.3000   XZ=             -3.6688   YZ=             -0.4633
 Octapole moment (field-independent basis, Debye-Ang**2):
  XXX=              6.4721  YYY=              0.7367  ZZZ=              1.7811  XYY=              0.7577
  XXY=              0.3784  XXZ=              0.0306  XZZ=             -0.5445  YZZ=              0.3042
  YYZ=              0.3469  XYZ=             -0.2098
 Hexadecapole moment (field-independent basis, Debye-Ang**3):
 XXXX=           -423.4893 YYYY=           -326.4840 ZZZZ=           -100.8368 XXXY=             -5.5155
 XXXZ=            -23.6068 YYYX=             -5.3634 YYYZ=             -2.0590 ZZZX=             -4.6443
 ZZZY=             -0.4291 XXYY=           -124.4325 XXZZ=            -85.7549 YYZZ=            -73.7740
 XXYZ=             -2.0477 YYXZ=             -6.0803 ZZXY=             -0.6404
 N-N= 2.220588938759D+02 E-N=-9.862826605588D+02  KE= 2.324707605778D+02
  Exact polarizability:   0.000   0.000   0.000   0.000   0.000   0.000
 Approx polarizability: 133.868  -5.663 147.157 -19.239   0.690  70.331
 No NMR shielding tensors so no spin-rotation constants.
 Leave Link  601 at Sun May 12 20:52:45 2019, MaxMem=  2097152000 cpu:         0.6
 (Enter /mnt/e/g09/l701.exe)
 Compute integral second derivatives.
 ... and contract with generalized density number  0.
 R6Disp: Adding Grimme-D3 dispersion energy 2nd derivatives to the Hessian.
 Leave Link  701 at Sun May 12 20:52:45 2019, MaxMem=  2097152000 cpu:         0.9
 (Enter /mnt/e/g09/l702.exe)
 L702 exits ... SP integral derivatives will be done elsewhere.
 Leave Link  702 at Sun May 12 20:52:45 2019, MaxMem=  2097152000 cpu:         0.0
 (Enter /mnt/e/g09/l703.exe)
 Compute integral second derivatives, UseDBF=F ICtDFT=           0.
 Integral derivatives from FoFJK, PRISM(SPDF).
 Calling FoFJK, ICntrl=    100147 FMM=F ISym2X=0 I1Cent= 0 IOpClX= 0 NMat=1 NMatS=1 NMatT=0.
 FoFJK:  IHMeth= 1 ICntrl=  100147 DoSepK=F KAlg= 0 I1Cent=   0 FoldK=F
 IRaf=         0 NMat=   1 IRICut=       1 DoRegI=T DoRafI=F ISym2E= 0.
 FoFCou: FMM=F IPFlag=           0 FMFlag=      100000 FMFlg1=         800
         NFxFlg=           0 DoJE=F BraDBF=F KetDBF=F FulRan=T
         wScrn=  0.000000 ICntrl=  100147 IOpCl=  0 I1Cent=           0 NGrid=           0
         NMat0=    1 NMatS0=      1 NMatT0=    0 NMatD0=    1 NMtDS0=    0 NMtDT0=    0
 Symmetry not used in FoFCou.
 Leave Link  703 at Sun May 12 20:52:52 2019, MaxMem=  2097152000 cpu:        48.9
 (Enter /mnt/e/g09/l716.exe)
 Dipole        = 6.54262657D-02-5.88145000D-04 1.43815305D-01
 Polarizability= 0.00000000D+00 0.00000000D+00 0.00000000D+00
                 0.00000000D+00 0.00000000D+00 0.00000000D+00
 ***** Axes restored to original set *****
 -------------------------------------------------------------------
 Center     Atomic                   Forces (Hartrees/Bohr)
 Number     Number              X              Y              Z
 -------------------------------------------------------------------
      1        6           0.000370175    0.002576571   -0.020823324
      2        1           0.003023367   -0.010778211    0.001055930
      3        1          -0.013245198   -0.001413780    0.003853614
      4        6           0.085444405   -0.003972584   -0.009918206
      5        1          -0.001868256    0.013303560    0.008951883
      6        6          -0.094597306   -0.215304372   -0.017433199
      7        6          -0.003753386    0.212511336    0.044088299
      8        1           0.012887982    0.006710534    0.006278283
      9        1           0.077553495    0.131840317    0.008050279
     10        1          -0.067079666   -0.121205109   -0.060921256
     11        6           0.001545065    0.005106602   -0.001818043
     12        1          -0.009718314   -0.008871492    0.004042893
     13        1          -0.007274528   -0.002351064    0.015560197
     14        6           0.000510403    0.005215883   -0.003131130
     15        1           0.006652577   -0.003227116    0.016357128
     16        1           0.009549185   -0.010141075    0.005806652
 -------------------------------------------------------------------
 Cartesian Forces:  Max     0.215304372 RMS     0.057533447
 FormGI is forming the generalized inverse of G from B-inverse, IUseBI=4.
 Leave Link  716 at Sun May 12 20:52:52 2019, MaxMem=  2097152000 cpu:         0.1
 (Enter /mnt/e/g09/l103.exe)

 GradGradGradGradGradGradGradGradGradGradGradGradGradGradGradGradGradGrad
 Berny optimization.
 Red2BG is reusing G-inverse.
 Internal  Forces:  Max     0.152957977 RMS     0.024163055
 Search for a saddle point.
 Step number   1 out of a maximum of  100
 All quantities printed in internal units (Hartrees-Bohrs-Radians)
 Swapping is turned off.
 Second derivative matrix not updated -- analytic derivatives used.
 ITU=  0
     Eigenvalues ---   -0.02305   0.00020   0.00495   0.00744   0.00993
     Eigenvalues ---    0.01174   0.01235   0.01370   0.01411   0.01608
     Eigenvalues ---    0.01715   0.01999   0.02184   0.02580   0.03062
     Eigenvalues ---    0.03356   0.03954   0.05214   0.05802   0.06035
     Eigenvalues ---    0.06324   0.07004   0.08401   0.09051   0.09618
     Eigenvalues ---    0.09833   0.11604   0.15898   0.17362   0.20052
     Eigenvalues ---    0.33092   0.35214   0.36804   0.39629   0.39694
     Eigenvalues ---    0.39778   0.39969   0.40031   0.52143   0.53896
     Eigenvalues ---    0.72456   0.82246
 Eigenvectors required to have negative eigenvalues:
                          R13       R4        D25       D28       D50
   1                    0.54989   0.35372  -0.30158  -0.25458   0.18556
                          D45       R9        D37       D41       A32
   1                   -0.18221  -0.16337  -0.15842  -0.15538  -0.15406
 RFO step:  Lambda0=5.950420007D-03 Lambda=-1.09766077D-01.
 Linear search not attempted -- option 19 set.
 Maximum step size (   0.300) exceeded in Quadratic search.
    -- Step size scaled by   0.512
 Iteration  1 RMS(Cart)=  0.03249721 RMS(Int)=  0.00072591
 Iteration  2 RMS(Cart)=  0.00054447 RMS(Int)=  0.00043415
 Iteration  3 RMS(Cart)=  0.00000038 RMS(Int)=  0.00043415
 ITry= 1 IFail=0 DXMaxC= 1.19D-01 DCOld= 1.00D+10 DXMaxT= 3.00D-01 DXLimC= 3.00D+00 Rises=F
 Variable       Old X    -DE/DX   Delta X   Delta X   Delta X     New X
                                 (Linear)    (Quad)   (Total)
    R1        2.02201   0.00591   0.00000   0.00865   0.00873   2.03074
    R2        2.02201   0.01324   0.00000   0.01272   0.01272   2.03473
    R3        2.56096   0.02011   0.00000   0.02950   0.02929   2.59024
    R4        4.36595   0.00181   0.00000  -0.08176  -0.08252   4.28343
    R5        4.22953   0.01277   0.00000   0.01946   0.01952   4.24905
    R6        4.43240   0.00372   0.00000  -0.00867  -0.00866   4.42374
    R7        2.02201   0.01246   0.00000   0.01349   0.01349   2.03550
    R8        2.91018  -0.06423   0.00000  -0.14204  -0.14210   2.76807
    R9        2.91018  -0.09826   0.00000  -0.13062  -0.13047   2.77971
   R10        1.77937   0.15296   0.00000   0.08416   0.08416   1.86353
   R11        2.02201   0.01289   0.00000   0.01396   0.01396   2.03597
   R12        1.77937   0.13281   0.00000   0.08092   0.08082   1.86018
   R13        4.32537   0.00871   0.00000  -0.10141  -0.10189   4.22348
   R14        4.47858   0.01371   0.00000   0.01246   0.01344   4.49203
   R15        2.02201   0.00978   0.00000   0.01035   0.01028   2.03228
   R16        2.02201   0.00191   0.00000   0.00209   0.00251   2.02451
   R17        2.56096   0.00587   0.00000   0.02554   0.02560   2.58656
   R18        2.02201   0.00550   0.00000   0.00667   0.00667   2.02868
   R19        2.02201   0.01134   0.00000   0.01048   0.01048   2.03248
    A1        2.00312  -0.00155   0.00000  -0.00773  -0.00771   1.99541
    A2        2.07179  -0.00189   0.00000  -0.00804  -0.00832   2.06347
    A3        1.43623  -0.00123   0.00000   0.02734   0.02753   1.46376
    A4        1.90998  -0.00157   0.00000   0.03251   0.03205   1.94203
    A5        2.09241   0.00484   0.00000   0.00612   0.00618   2.09860
    A6        1.90817  -0.00172   0.00000  -0.00681  -0.00683   1.90133
    A7        1.68347  -0.00533   0.00000  -0.02204  -0.02168   1.66180
    A8        1.79971  -0.00102   0.00000  -0.00176  -0.00179   1.79791
    A9        1.57522   0.00475   0.00000   0.00981   0.01005   1.58527
   A10        1.49537   0.00214   0.00000  -0.02678  -0.02677   1.46861
   A11        2.09836   0.00144   0.00000  -0.00575  -0.00566   2.09269
   A12        2.09241   0.00726   0.00000   0.00862   0.00834   2.10075
   A13        2.09241  -0.00869   0.00000  -0.00288  -0.00282   2.08960
   A14        2.09241   0.00569   0.00000   0.00252   0.00258   2.09499
   A15        2.09836  -0.00228   0.00000   0.00184   0.00169   2.10004
   A16        2.09241  -0.00342   0.00000  -0.00436  -0.00454   2.08788
   A17        2.09241  -0.00578   0.00000  -0.01115  -0.01132   2.08109
   A18        2.10670  -0.00010   0.00000  -0.00265  -0.00288   2.10382
   A19        1.72995   0.02218   0.00000   0.03473   0.03576   1.76571
   A20        1.97493   0.00847   0.00000  -0.00634  -0.00658   1.96835
   A21        1.95741  -0.01045   0.00000  -0.04029  -0.04057   1.91684
   A22        1.52740   0.00220   0.00000   0.00782   0.00793   1.53532
   A23        1.91808  -0.01082   0.00000  -0.01148  -0.01177   1.90631
   A24        2.09241  -0.00685   0.00000  -0.01353  -0.01437   2.07805
   A25        2.09836   0.00682   0.00000   0.01069   0.01061   2.10896
   A26        2.09241   0.00003   0.00000   0.00285   0.00239   2.09480
   A27        1.40528  -0.00257   0.00000  -0.00691  -0.00699   1.39829
   A28        1.94843  -0.01033   0.00000  -0.02124  -0.02138   1.92705
   A29        1.28507  -0.00498   0.00000   0.05469   0.05502   1.34008
   A30        1.48352   0.01568   0.00000   0.03370   0.03422   1.51774
   A31        1.77965  -0.02211   0.00000  -0.02951  -0.02845   1.75120
   A32        1.68880   0.02455   0.00000   0.07472   0.07432   1.76312
   A33        1.23853  -0.00015   0.00000   0.02580   0.02567   1.26420
   A34        2.09836  -0.00004   0.00000  -0.00120  -0.00152   2.09683
   A35        2.09241   0.00423   0.00000   0.00576   0.00517   2.09758
   A36        2.09241  -0.00419   0.00000  -0.00456  -0.00678   2.08563
    D1       -1.49164   0.00344   0.00000  -0.00155  -0.00141  -1.49305
    D2        2.14836  -0.00077   0.00000   0.01576   0.01571   2.16407
    D3        0.38952   0.00099   0.00000   0.00296   0.00306   0.39257
    D4        0.37769  -0.00476   0.00000  -0.01304  -0.01300   0.36469
    D5        2.61728   0.00465   0.00000  -0.01448  -0.01463   2.60265
    D6       -0.52431   0.00467   0.00000  -0.03263  -0.03265  -0.55696
    D7        0.00000   0.00220   0.00000   0.00801   0.00788   0.00788
    D8        3.14159   0.00222   0.00000  -0.01014  -0.01014   3.13145
    D9       -2.12458   0.00226   0.00000   0.01455   0.01446  -2.11012
   D10        1.01701   0.00227   0.00000  -0.00360  -0.00356   1.01345
   D11       -1.70341   0.00522   0.00000   0.02730   0.02661  -1.67680
   D12        1.43818   0.00523   0.00000   0.00916   0.00859   1.44677
   D13       -0.98061   0.00228   0.00000   0.00333   0.00343  -0.97718
   D14        1.13724   0.00867   0.00000   0.01600   0.01592   1.15316
   D15        1.00233   0.00023   0.00000   0.00395   0.00410   1.00643
   D16        3.12018   0.00662   0.00000   0.01662   0.01659   3.13677
   D17       -3.03630   0.00443   0.00000   0.00629   0.00649  -3.02981
   D18       -0.91845   0.01081   0.00000   0.01896   0.01898  -0.89947
   D19       -0.96806   0.00255   0.00000   0.01713   0.01740  -0.95066
   D20        0.00000  -0.00117   0.00000   0.00256   0.00187   0.00187
   D21        3.14159  -0.00014   0.00000   0.02773   0.02718  -3.11442
   D22        3.14159  -0.00116   0.00000  -0.01552  -0.01612   3.12547
   D23        0.00000  -0.00013   0.00000   0.00965   0.00919   0.00919
   D24        3.14159  -0.00076   0.00000   0.01860   0.01854  -3.12306
   D25        0.51804  -0.00887   0.00000   0.06485   0.06400   0.58203
   D26       -1.00901   0.00001   0.00000  -0.01195  -0.01190  -1.02090
   D27        0.00000  -0.00178   0.00000  -0.00648  -0.00660  -0.00660
   D28       -2.62356  -0.00990   0.00000   0.03977   0.03886  -2.58469
   D29        2.13259  -0.00102   0.00000  -0.03703  -0.03703   2.09556
   D30        0.89225  -0.00675   0.00000   0.00206   0.00236   0.89461
   D31       -1.14301  -0.00657   0.00000  -0.01561  -0.01447  -1.15747
   D32        2.99057   0.00289   0.00000   0.01929   0.01868   3.00926
   D33        3.11939  -0.00491   0.00000  -0.00994  -0.00997   3.10942
   D34        1.08413  -0.00473   0.00000  -0.02761  -0.02679   1.05734
   D35       -1.06547   0.00473   0.00000   0.00730   0.00636  -1.05912
   D36        0.39066   0.00034   0.00000   0.00365   0.00351   0.39417
   D37        1.58355   0.01006   0.00000   0.06700   0.06662   1.65018
   D38       -1.55804   0.01042   0.00000   0.01036   0.01045  -1.54759
   D39       -0.03804   0.01553   0.00000   0.01388   0.01413  -0.02391
   D40       -0.42404  -0.01129   0.00000  -0.00317  -0.00290  -0.42694
   D41        1.41265   0.00396   0.00000   0.06783   0.06812   1.48076
   D42       -1.72894   0.00051   0.00000  -0.01746  -0.01732  -1.74626
   D43        1.69090   0.01440   0.00000   0.02109   0.02114   1.71205
   D44        1.30491  -0.01243   0.00000   0.00404   0.00411   1.30902
   D45        3.14159   0.00282   0.00000   0.07505   0.07513  -3.06646
   D46        0.00000  -0.00063   0.00000  -0.01025  -0.01030  -0.01030
   D47       -1.45069   0.01475   0.00000  -0.03555  -0.03557  -1.48625
   D48       -1.83669  -0.01207   0.00000  -0.05260  -0.05259  -1.88928
   D49        0.00000   0.00318   0.00000   0.01841   0.01842   0.01842
   D50        3.14159  -0.00027   0.00000  -0.06689  -0.06701   3.07458
         Item               Value     Threshold  Converged?
 Maximum Force            0.152958     0.000450     NO 
 RMS     Force            0.024163     0.000300     NO 
 Maximum Displacement     0.119324     0.001800     NO 
 RMS     Displacement     0.032419     0.001200     NO 
 Predicted change in Energy=-4.351394D-02
 Lowest energy point so far.  Saving SCF results.
 GradGradGradGradGradGradGradGradGradGradGradGradGradGradGradGradGradGrad

 Leave Link  103 at Sun May 12 20:52:52 2019, MaxMem=  2097152000 cpu:         0.1
 (Enter /mnt/e/g09/l202.exe)
                          Input orientation:                          
 ---------------------------------------------------------------------
 Center     Atomic      Atomic             Coordinates (Angstroms)
 Number     Number       Type             X           Y           Z
 ---------------------------------------------------------------------
      1          6           0       -2.007771    0.075162    0.005783
      2          1           0       -1.577204   -0.779777   -0.482580
      3          1           0       -3.084421    0.086768    0.012314
      4          6           0       -1.304785    1.251785   -0.007670
      5          1           0       -1.830886    2.191699   -0.004367
      6          6           0        0.159959    1.239287   -0.003767
      7          6           0        0.885268   -0.040317    0.012287
      8          1           0        1.962452   -0.034420    0.032417
      9          1           0        0.665051    2.086145    0.009681
     10          1           0        0.516975   -0.829820   -0.445995
     11          6           0       -1.271510   -0.937701    1.895210
     12          1           0       -1.838777   -1.804353    1.605919
     13          1           0       -1.791397   -0.066484    2.239361
     14          6           0        0.097028   -0.961153    1.890007
     15          1           0        0.652011   -0.114051    2.246209
     16          1           0        0.621437   -1.855473    1.603681
 ---------------------------------------------------------------------
                    Distance matrix (angstroms):
                    1          2          3          4          5
     1  C    0.000000
     2  H    1.074619   0.000000
     3  H    1.076732   1.807629   0.000000
     4  C    1.370697   2.104043   2.127150   0.000000
     5  H    2.123940   3.020383   2.449972   1.077141   0.000000
     6  C    2.460555   2.706219   3.443045   1.464802   2.206933
     7  C    2.895350   2.618294   3.971722   2.542883   3.515631
     8  H    3.971824   3.653758   5.048367   3.511519   4.398451
     9  H    3.344854   3.671994   4.249242   2.139325   2.498208
    10  H    2.719823   2.095096   3.744360   2.800717   3.851891
    11  C    2.266694   2.402555   2.807397   2.901018   3.703301
    12  H    2.474181   2.340941   2.769033   3.496970   4.308308
    13  H    2.248500   2.821990   2.579755   2.650240   3.183593
    14  C    3.009057   2.909488   3.839985   3.234710   4.152828
    15  H    3.482779   3.585928   4.357928   3.282457   4.067721
    16  H    3.632267   3.216151   4.476396   3.995226   4.997930
                    6          7          8          9         10
     6  C    0.000000
     7  C    1.470958   0.000000
     8  H    2.207401   1.077388   0.000000
     9  H    0.986138   2.137837   2.486074   0.000000
    10  H    2.145747   0.984366   1.717831   2.955067   0.000000
    11  C    3.224049   3.000397   3.839847   4.055753   2.948144
    12  H    3.981179   3.615509   4.478607   4.894192   3.272557
    13  H    3.247223   3.482108   4.354654   3.954671   3.622485
    14  C    2.903838   2.234970   2.790928   3.625507   2.377079
    15  H    2.671336   2.247277   2.573806   3.137371   2.789000
    16  H    3.517725   2.428359   2.753802   4.251951   2.294351
                   11         12         13         14         15
    11  C    0.000000
    12  H    1.075439   0.000000
    13  H    1.071327   1.850320   0.000000
    14  C    1.368749   2.130501   2.118638   0.000000
    15  H    2.121681   3.077518   2.443880   1.073530   0.000000
    16  H    2.123804   2.460746   3.070234   1.075544   1.856428
                   16
    16  H    0.000000
 Stoichiometry    C6H10
 Framework group  C1[X(C6H10)]
 Deg. of freedom    42
 Full point group                 C1      NOp   1
 RotChk:  IX=0 Diff= 9.38D-02
 Largest Abelian subgroup         C1      NOp   1
 Largest concise Abelian subgroup C1      NOp   1
                         Standard orientation:                         
 ---------------------------------------------------------------------
 Center     Atomic      Atomic             Coordinates (Angstroms)
 Number     Number       Type             X           Y           Z
 ---------------------------------------------------------------------
      1          6           0        0.560933   -1.377493    0.502650
      2          1           0        0.207105   -0.951820    1.423745
      3          1           0        0.660859   -2.449455    0.518914
      4          6           0        1.385285   -0.619233   -0.287475
      5          1           0        2.131080   -1.097603   -0.899998
      6          6           0        1.243357    0.838284   -0.321342
      7          6           0        0.213661    1.496949    0.496951
      8          1           0        0.109154    2.568190    0.449130
      9          1           0        1.821486    1.381336   -0.907284
     10          1           0       -0.040279    1.128013    1.373523
     11          6           0       -1.506935   -0.842834   -0.256274
     12          1           0       -1.912288   -1.426981    0.550590
     13          1           0       -1.037869   -1.345266   -1.078028
     14          6           0       -1.642487    0.519077   -0.273485
     15          1           0       -1.294784    1.084759   -1.117033
     16          1           0       -2.167350    1.020323    0.520283
 ---------------------------------------------------------------------
 Rotational constants (GHZ):      4.3020470      3.5067497      2.2585517
 Leave Link  202 at Sun May 12 20:52:52 2019, MaxMem=  2097152000 cpu:         0.0
 (Enter /mnt/e/g09/l301.exe)
 Standard basis: 6-31G(d) (6D, 7F)
 Ernie: Thresh=  0.10000D-02 Tol=  0.10000D-05 Strict=F.
 There are   110 symmetry adapted cartesian basis functions of A   symmetry.
 There are   110 symmetry adapted basis functions of A   symmetry.
   110 basis functions,   208 primitive gaussians,   110 cartesian basis functions
    23 alpha electrons       23 beta electrons
       nuclear repulsion energy       224.6108281854 Hartrees.
 IExCor=  402 DFT=T Ex+Corr=B3LYP ExCW=0 ScaHFX=  0.200000
 ScaDFX=  0.800000  0.720000  1.000000  0.810000 ScalE2=  1.000000  1.000000
 IRadAn=      0 IRanWt=     -1 IRanGd=            0 ICorTp=0 IEmpDi=131
 NAtoms=   16 NActive=   16 NUniq=   16 SFac= 1.00D+00 NAtFMM=   60 NAOKFM=F Big=F
 Integral buffers will be    131072 words long.
 Raffenetti 2 integral format.
 Two-electron integral symmetry is turned on.
 R6Disp:  Grimme-D3 Dispersion energy=       -0.0121579814 Hartrees.
 Nuclear repulsion after empirical dispersion term =      224.5986702040 Hartrees.
 Leave Link  301 at Sun May 12 20:52:52 2019, MaxMem=  2097152000 cpu:         0.1
 (Enter /mnt/e/g09/l302.exe)
 NPDir=0 NMtPBC=     1 NCelOv=     1 NCel=       1 NClECP=     1 NCelD=      1
         NCelK=      1 NCelE2=     1 NClLst=     1 CellRange=     0.0.
 One-electron integrals computed using PRISM.
 NBasis=   110 RedAO= T EigKep=  2.32D-03  NBF=   110
 NBsUse=   110 1.00D-06 EigRej= -1.00D+00 NBFU=   110
 Precomputing XC quadrature grid using
 IXCGrd= 4 IRadAn=           0 IRanWt=          -1 IRanGd=           0 AccXCQ= 0.00D+00.
 Generated NRdTot=       0 NPtTot=           0 NUsed=           0 NTot=          32
 NSgBfM=   110   110   110   110   110 MxSgAt=    16 MxSgA2=    16.
 Leave Link  302 at Sun May 12 20:52:52 2019, MaxMem=  2097152000 cpu:         0.5
 (Enter /mnt/e/g09/l303.exe)
 DipDrv:  MaxL=1.
 Leave Link  303 at Sun May 12 20:52:52 2019, MaxMem=  2097152000 cpu:         0.1
 (Enter /mnt/e/g09/l401.exe)
 Initial guess from the checkpoint file:  "/mnt/e/scratch/Gau-3888.chk"
 B after Tr=     0.000000    0.000000    0.000000
         Rot=    0.999443   -0.006631   -0.001642    0.032667 Ang=  -3.83 deg.
 Guess basis will be translated and rotated to current coordinates.
 JPrj=2 DoOrth=T DoCkMO=T.
 Generating alternative initial guess.
 ExpMin= 1.61D-01 ExpMax= 3.05D+03 ExpMxC= 4.57D+02 IAcc=1 IRadAn=         1 AccDes= 0.00D+00
 Harris functional with IExCor=  402 and IRadAn=       1 diagonalized for initial guess.
 HarFok:  IExCor=  402 AccDes= 0.00D+00 IRadAn=         1 IDoV= 1 UseB2=F ITyADJ=14
 ICtDFT=  3500011 ScaDFX=  1.000000  1.000000  1.000000  1.000000
 FoFCou: FMM=F IPFlag=           0 FMFlag=      100000 FMFlg1=           0
         NFxFlg=           0 DoJE=T BraDBF=F KetDBF=T FulRan=T
         wScrn=  0.000000 ICntrl=     500 IOpCl=  0 I1Cent=   200000004 NGrid=           0
         NMat0=    1 NMatS0=      1 NMatT0=    0 NMatD0=    1 NMtDS0=    0 NMtDT0=    0
 Petite list used in FoFCou.
 Harris En= -234.595723545252    
 Leave Link  401 at Sun May 12 20:52:52 2019, MaxMem=  2097152000 cpu:         1.1
 (Enter /mnt/e/g09/l502.exe)
 Closed shell SCF:
 Using DIIS extrapolation, IDIIS=  1040.
 Integral symmetry usage will be decided dynamically.
 Keep R1 ints in memory in canonical form, NReq=19627039.
 IVT=       56576 IEndB=       56576 NGot=  2097152000 MDV=  2078456860
 LenX=  2078456860 LenY=  2078444319
 Requested convergence on RMS density matrix=1.00D-08 within 128 cycles.
 Requested convergence on MAX density matrix=1.00D-06.
 Requested convergence on             energy=1.00D-06.
 No special actions if energy rises.
 FoFCou: FMM=F IPFlag=           0 FMFlag=           0 FMFlg1=           0
         NFxFlg=           0 DoJE=F BraDBF=F KetDBF=F FulRan=T
         wScrn=  0.000000 ICntrl=     600 IOpCl=  0 I1Cent=           0 NGrid=           0
         NMat0=    1 NMatS0=   6105 NMatT0=    0 NMatD0=    1 NMtDS0=    0 NMtDT0=    0
 Symmetry not used in FoFCou.
 Integral accuracy reduced to 1.0D-05 until final iterations.

 Cycle   1  Pass 0  IDiag  1:
 E= -234.511585432574    
 DIIS: error= 3.76D-03 at cycle   1 NSaved=   1.
 NSaved= 1 IEnMin= 1 EnMin= -234.511585432574     IErMin= 1 ErrMin= 3.76D-03
 ErrMax= 3.76D-03  0.00D+00 EMaxC= 1.00D-01 BMatC= 2.42D-03 BMatP= 2.42D-03
 IDIUse=3 WtCom= 9.62D-01 WtEn= 3.76D-02
 Coeff-Com:  0.100D+01
 Coeff-En:   0.100D+01
 Coeff:      0.100D+01
 Gap=     1.783 Goal=   None    Shift=    0.000
 GapD=    1.783 DampG=2.000 DampE=1.000 DampFc=2.0000 IDamp=-1.
 RMSDP=8.90D-04 MaxDP=8.46D-03              OVMax= 3.64D-02

 Cycle   2  Pass 0  IDiag  1:
 E= -234.516150150592     Delta-E=       -0.004564718018 Rises=F Damp=F
 DIIS: error= 1.28D-03 at cycle   2 NSaved=   2.
 NSaved= 2 IEnMin= 2 EnMin= -234.516150150592     IErMin= 2 ErrMin= 1.28D-03
 ErrMax= 1.28D-03  0.00D+00 EMaxC= 1.00D-01 BMatC= 3.30D-04 BMatP= 2.42D-03
 IDIUse=3 WtCom= 9.87D-01 WtEn= 1.28D-02
 Coeff-Com:  0.164D+00 0.836D+00
 Coeff-En:   0.000D+00 0.100D+01
 Coeff:      0.162D+00 0.838D+00
 Gap=     0.187 Goal=   None    Shift=    0.000
 RMSDP=3.28D-04 MaxDP=5.86D-03 DE=-4.56D-03 OVMax= 1.77D-02

 Cycle   3  Pass 0  IDiag  1:
 E= -234.516025129127     Delta-E=        0.000125021465 Rises=F Damp=F
 DIIS: error= 2.33D-03 at cycle   3 NSaved=   3.
 NSaved= 3 IEnMin= 2 EnMin= -234.516150150592     IErMin= 2 ErrMin= 1.28D-03
 ErrMax= 2.33D-03  0.00D+00 EMaxC= 1.00D-01 BMatC= 4.43D-04 BMatP= 3.30D-04
 IDIUse=3 WtCom= 1.72D-01 WtEn= 8.28D-01
 Coeff-Com:  0.672D-02 0.538D+00 0.455D+00
 Coeff-En:   0.000D+00 0.567D+00 0.433D+00
 Coeff:      0.115D-02 0.562D+00 0.437D+00
 Gap=     0.188 Goal=   None    Shift=    0.000
 RMSDP=2.21D-04 MaxDP=4.04D-03 DE= 1.25D-04 OVMax= 1.14D-02

 Cycle   4  Pass 0  IDiag  1:
 E= -234.516519999165     Delta-E=       -0.000494870038 Rises=F Damp=F
 DIIS: error= 4.28D-04 at cycle   4 NSaved=   4.
 NSaved= 4 IEnMin= 4 EnMin= -234.516519999165     IErMin= 4 ErrMin= 4.28D-04
 ErrMax= 4.28D-04  0.00D+00 EMaxC= 1.00D-01 BMatC= 1.15D-05 BMatP= 3.30D-04
 IDIUse=3 WtCom= 9.96D-01 WtEn= 4.28D-03
 Coeff-Com: -0.134D-01 0.115D+00 0.180D+00 0.719D+00
 Coeff-En:   0.000D+00 0.000D+00 0.000D+00 0.100D+01
 Coeff:     -0.134D-01 0.114D+00 0.179D+00 0.720D+00
 Gap=     0.188 Goal=   None    Shift=    0.000
 RMSDP=5.18D-05 MaxDP=6.21D-04 DE=-4.95D-04 OVMax= 3.38D-03

 Cycle   5  Pass 0  IDiag  1:
 E= -234.516534888100     Delta-E=       -0.000014888935 Rises=F Damp=F
 DIIS: error= 1.21D-04 at cycle   5 NSaved=   5.
 NSaved= 5 IEnMin= 5 EnMin= -234.516534888100     IErMin= 5 ErrMin= 1.21D-04
 ErrMax= 1.21D-04  0.00D+00 EMaxC= 1.00D-01 BMatC= 2.08D-06 BMatP= 1.15D-05
 IDIUse=3 WtCom= 9.99D-01 WtEn= 1.21D-03
 Coeff-Com: -0.774D-02 0.334D-01 0.759D-01 0.393D+00 0.505D+00
 Coeff-En:   0.000D+00 0.000D+00 0.000D+00 0.000D+00 0.100D+01
 Coeff:     -0.774D-02 0.334D-01 0.759D-01 0.393D+00 0.506D+00
 Gap=     0.188 Goal=   None    Shift=    0.000
 RMSDP=1.74D-05 MaxDP=3.63D-04 DE=-1.49D-05 OVMax= 1.13D-03

 Cycle   6  Pass 0  IDiag  1:
 E= -234.516537342391     Delta-E=       -0.000002454291 Rises=F Damp=F
 DIIS: error= 4.74D-05 at cycle   6 NSaved=   6.
 NSaved= 6 IEnMin= 6 EnMin= -234.516537342391     IErMin= 6 ErrMin= 4.74D-05
 ErrMax= 4.74D-05  0.00D+00 EMaxC= 1.00D-01 BMatC= 2.12D-07 BMatP= 2.08D-06
 IDIUse=1 WtCom= 1.00D+00 WtEn= 0.00D+00
 Coeff-Com: -0.126D-02-0.743D-02 0.326D-02 0.511D-01 0.244D+00 0.710D+00
 Coeff:     -0.126D-02-0.743D-02 0.326D-02 0.511D-01 0.244D+00 0.710D+00
 Gap=     0.188 Goal=   None    Shift=    0.000
 RMSDP=7.23D-06 MaxDP=1.26D-04 DE=-2.45D-06 OVMax= 4.52D-04

 Initial convergence to 1.0D-05 achieved.  Increase integral accuracy.
 Cycle   7  Pass 1  IDiag  1:
 E= -234.516515481721     Delta-E=        0.000021860669 Rises=F Damp=F
 DIIS: error= 2.80D-05 at cycle   1 NSaved=   1.
 NSaved= 1 IEnMin= 1 EnMin= -234.516515481721     IErMin= 1 ErrMin= 2.80D-05
 ErrMax= 2.80D-05  0.00D+00 EMaxC= 1.00D-01 BMatC= 1.18D-07 BMatP= 1.18D-07
 IDIUse=1 WtCom= 1.00D+00 WtEn= 0.00D+00
 Coeff-Com:  0.100D+01
 Coeff:      0.100D+01
 Gap=     0.188 Goal=   None    Shift=    0.000
 RMSDP=7.23D-06 MaxDP=1.26D-04 DE= 2.19D-05 OVMax= 4.80D-04

 Cycle   8  Pass 1  IDiag  1:
 E= -234.516515389460     Delta-E=        0.000000092261 Rises=F Damp=F
 DIIS: error= 5.82D-05 at cycle   2 NSaved=   2.
 NSaved= 2 IEnMin= 1 EnMin= -234.516515481721     IErMin= 1 ErrMin= 2.80D-05
 ErrMax= 5.82D-05  0.00D+00 EMaxC= 1.00D-01 BMatC= 2.27D-07 BMatP= 1.18D-07
 IDIUse=1 WtCom= 1.00D+00 WtEn= 0.00D+00
 Coeff-Com:  0.598D+00 0.402D+00
 Coeff:      0.598D+00 0.402D+00
 Gap=     0.188 Goal=   None    Shift=    0.000
 RMSDP=5.79D-06 MaxDP=1.07D-04 DE= 9.23D-08 OVMax= 3.32D-04

 Cycle   9  Pass 1  IDiag  1:
 E= -234.516515645080     Delta-E=       -0.000000255620 Rises=F Damp=F
 DIIS: error= 1.72D-05 at cycle   3 NSaved=   3.
 NSaved= 3 IEnMin= 3 EnMin= -234.516515645080     IErMin= 3 ErrMin= 1.72D-05
 ErrMax= 1.72D-05  0.00D+00 EMaxC= 1.00D-01 BMatC= 1.73D-08 BMatP= 1.18D-07
 IDIUse=1 WtCom= 1.00D+00 WtEn= 0.00D+00
 Coeff-Com:  0.217D-01 0.213D+00 0.766D+00
 Coeff:      0.217D-01 0.213D+00 0.766D+00
 Gap=     0.188 Goal=   None    Shift=    0.000
 RMSDP=1.57D-06 MaxDP=2.62D-05 DE=-2.56D-07 OVMax= 9.61D-05

 Cycle  10  Pass 1  IDiag  1:
 E= -234.516515664543     Delta-E=       -0.000000019463 Rises=F Damp=F
 DIIS: error= 2.61D-06 at cycle   4 NSaved=   4.
 NSaved= 4 IEnMin= 4 EnMin= -234.516515664543     IErMin= 4 ErrMin= 2.61D-06
 ErrMax= 2.61D-06  0.00D+00 EMaxC= 1.00D-01 BMatC= 1.69D-09 BMatP= 1.73D-08
 IDIUse=1 WtCom= 1.00D+00 WtEn= 0.00D+00
 Coeff-Com: -0.186D-01 0.961D-01 0.418D+00 0.505D+00
 Coeff:     -0.186D-01 0.961D-01 0.418D+00 0.505D+00
 Gap=     0.188 Goal=   None    Shift=    0.000
 RMSDP=4.83D-07 MaxDP=7.76D-06 DE=-1.95D-08 OVMax= 2.06D-05

 Cycle  11  Pass 1  IDiag  1:
 E= -234.516515666337     Delta-E=       -0.000000001794 Rises=F Damp=F
 DIIS: error= 1.23D-06 at cycle   5 NSaved=   5.
 NSaved= 5 IEnMin= 5 EnMin= -234.516515666337     IErMin= 5 ErrMin= 1.23D-06
 ErrMax= 1.23D-06  0.00D+00 EMaxC= 1.00D-01 BMatC= 1.03D-10 BMatP= 1.69D-09
 IDIUse=1 WtCom= 1.00D+00 WtEn= 0.00D+00
 Coeff-Com: -0.110D-01 0.491D-01 0.216D+00 0.293D+00 0.454D+00
 Coeff:     -0.110D-01 0.491D-01 0.216D+00 0.293D+00 0.454D+00
 Gap=     0.188 Goal=   None    Shift=    0.000
 RMSDP=1.21D-07 MaxDP=1.89D-06 DE=-1.79D-09 OVMax= 6.94D-06

 Cycle  12  Pass 1  IDiag  1:
 E= -234.516515666452     Delta-E=       -0.000000000115 Rises=F Damp=F
 DIIS: error= 3.65D-07 at cycle   6 NSaved=   6.
 NSaved= 6 IEnMin= 6 EnMin= -234.516515666452     IErMin= 6 ErrMin= 3.65D-07
 ErrMax= 3.65D-07  0.00D+00 EMaxC= 1.00D-01 BMatC= 1.04D-11 BMatP= 1.03D-10
 IDIUse=1 WtCom= 1.00D+00 WtEn= 0.00D+00
 Coeff-Com: -0.848D-03-0.614D-03-0.239D-02 0.146D-01 0.240D+00 0.749D+00
 Coeff:     -0.848D-03-0.614D-03-0.239D-02 0.146D-01 0.240D+00 0.749D+00
 Gap=     0.188 Goal=   None    Shift=    0.000
 RMSDP=4.50D-08 MaxDP=5.27D-07 DE=-1.15D-10 OVMax= 2.87D-06

 Cycle  13  Pass 1  IDiag  1:
 E= -234.516515666470     Delta-E=       -0.000000000019 Rises=F Damp=F
 DIIS: error= 5.90D-08 at cycle   7 NSaved=   7.
 NSaved= 7 IEnMin= 7 EnMin= -234.516515666470     IErMin= 7 ErrMin= 5.90D-08
 ErrMax= 5.90D-08  0.00D+00 EMaxC= 1.00D-01 BMatC= 6.36D-13 BMatP= 1.04D-11
 IDIUse=1 WtCom= 1.00D+00 WtEn= 0.00D+00
 Coeff-Com:  0.557D-03-0.431D-02-0.188D-01-0.168D-01 0.737D-01 0.311D+00
 Coeff-Com:  0.655D+00
 Coeff:      0.557D-03-0.431D-02-0.188D-01-0.168D-01 0.737D-01 0.311D+00
 Coeff:      0.655D+00
 Gap=     0.188 Goal=   None    Shift=    0.000
[...]
   D24       -3.01074   0.00001   0.00000  -0.00003  -0.00003  -3.01077
   D25        0.58391   0.00001   0.00000  -0.00070  -0.00070   0.58321
   D26       -1.01260   0.00000   0.00000  -0.00053  -0.00053  -1.01312
   D27       -0.11330   0.00001   0.00000   0.00005   0.00005  -0.11325
   D28       -2.80184   0.00000   0.00000  -0.00062  -0.00062  -2.80246
   D29        1.88484   0.00000   0.00000  -0.00045  -0.00044   1.88440
   D30        0.86221   0.00002   0.00000   0.00331   0.00331   0.86552
   D31       -1.27377   0.00001   0.00000   0.00306   0.00306  -1.27071
   D32        2.99794   0.00001   0.00000   0.00310   0.00310   3.00104
   D33        3.05464   0.00002   0.00000   0.00334   0.00334   3.05797
   D34        0.91866   0.00001   0.00000   0.00309   0.00309   0.92174
   D35       -1.09281   0.00001   0.00000   0.00312   0.00312  -1.08969
   D36        0.37000   0.00000   0.00000  -0.00087  -0.00087   0.36914
   D37        1.97229   0.00000   0.00000  -0.00173  -0.00173   1.97056
   D38       -1.60014   0.00000   0.00000  -0.00132  -0.00132  -1.60146
   D39        0.00358  -0.00002   0.00000  -0.00353  -0.00353   0.00005
   D40       -0.43623   0.00001   0.00000  -0.00273  -0.00273  -0.43896
   D41        1.79926   0.00001   0.00000  -0.00233  -0.00233   1.79693
   D42       -1.79305  -0.00001   0.00000  -0.00253  -0.00253  -1.79558
   D43        1.79835  -0.00001   0.00000  -0.00269  -0.00270   1.79566
   D44        1.35854   0.00001   0.00000  -0.00189  -0.00189   1.35665
   D45       -2.68916   0.00001   0.00000  -0.00149  -0.00149  -2.69065
   D46        0.00172   0.00000   0.00000  -0.00169  -0.00169   0.00003
   D47       -1.79455  -0.00002   0.00000  -0.00231  -0.00231  -1.79686
   D48       -2.23436   0.00001   0.00000  -0.00151  -0.00151  -2.23587
   D49        0.00112   0.00001   0.00000  -0.00111  -0.00111   0.00001
   D50        2.69201  -0.00001   0.00000  -0.00131  -0.00131   2.69070
         Item               Value     Threshold  Converged?
 Maximum Force            0.000116     0.000450     YES
 RMS     Force            0.000018     0.000300     YES
 Maximum Displacement     0.005137     0.001800     NO 
 RMS     Displacement     0.001521     0.001200     NO 
 Predicted change in Energy=-2.673163D-07
 GradGradGradGradGradGradGradGradGradGradGradGradGradGradGradGradGradGrad

 Leave Link  103 at Sun May 12 20:54:08 2019, MaxMem=  2097152000 cpu:         0.1
 (Enter /mnt/e/g09/l9999.exe)
 1\1\GINC-DESKTOP-P4HQ21A\Freq\RB3LYP\6-31G(d)\C6H10\XINYAN\12-May-2019
 \0\\#P Geom=AllCheck Guess=TCheck SCRF=Check GenChk RB3LYP/6-31G(d) Fr
 eq\\Title\\0,1\C,-2.0040261989,0.0617681034,-0.0797885112\H,-1.6482818
 933,-0.848638112,-0.5492541824\H,-3.0836606699,0.1166481133,0.03549095
 64\C,-1.252698712,1.2229791619,-0.1311663331\H,-1.7495164197,2.1743730
 371,0.0533903821\C,0.1537049919,1.2020797382,-0.1241373648\C,0.8700114
 534,0.0193538134,-0.0658248064\H,1.9495315194,0.0428954862,0.060679936
 1\H,0.6766970081,2.1384851845,0.0658026198\H,0.4931160924,-0.880152274
 1,-0.540077338\C,-1.2839213871,-0.883271323,1.8522466568\H,-1.84125867
 79,-1.7911271833,1.63905998\H,-1.8150516416,-0.142274481,2.4390636226\
 C,0.1030991223,-0.9070885991,1.8573991942\H,0.6552400229,-0.1854892841
 ,2.4489537197\H,0.6304436199,-1.8332432414,1.646651778\\Version=ES64L-
 G09RevD.01\State=1-A\HF=-234.5560552\RMSD=3.909e-09\RMSF=4.359e-05\Zer
 oPoint=0.1407593\Thermal=0.1471229\Dipole=-0.002593,-0.1143994,0.11061
 36\DipoleDeriv=0.0903695,-0.0122577,-0.0367186,-0.0069026,0.0729702,-0
 .0223269,0.0616803,-0.0385316,0.0417879,-0.0054803,0.0611752,0.0283614
 ,0.0269063,-0.0380913,-0.066565,-0.008666,-0.0431093,0.0296723,-0.1229
 198,-0.0036687,0.0035535,0.0214033,0.0548509,-0.0160169,-0.0445116,-0.
 0011315,0.0731482,-0.0058465,-0.0973389,0.0354311,-0.0792731,0.032036,
 0.1243931,-0.2193058,0.0872152,-0.2095093,0.0079213,0.0696205,0.004706
 7,0.0725831,-0.1010608,-0.0105751,0.0449417,-0.0629054,0.1084354,-0.00
 26343,0.097718,-0.0297096,0.0791122,0.02697,0.1265311,0.223288,0.08169
 67,-0.2077762,0.0911989,0.0119058,0.0366987,0.007388,0.0723721,-0.0229
 592,-0.0618001,-0.0368485,0.041959,-0.1237609,0.0088958,-0.0060317,-0.
 0161654,0.0551262,-0.0160832,0.0423779,-0.002313,0.0734167,0.0040793,-
 0.0721994,-0.0060587,-0.0756303,-0.0969633,-0.0112055,-0.0478654,-0.06
 2266,0.1078855,-0.0078724,-0.0614117,-0.0307647,-0.0272706,-0.035342,-
 0.0661785,0.0071339,-0.0442057,0.029502,0.0377878,0.0569914,-0.0632783
 ,-0.0645843,0.0469158,0.0764477,0.0004558,0.127542,-0.1081411,0.000673
 3,-0.0665507,0.0232534,-0.081183,-0.0451243,-0.0404767,0.0366465,-0.02
 27528,0.0577024,-0.0028544,0.0066315,0.0583758,0.0364862,-0.0218342,-0
 .0458164,0.0432274,-0.045113,0.0071719,0.036856,-0.0576702,0.0672388,0
 .0635881,0.0476667,0.07408,0.0048496,0.1278741,-0.1091478,-0.003418,-0
 .0067647,-0.0603034,-0.036302,-0.0201269,-0.0440866,-0.0450221,-0.0437
 984,0.0068623,0.0059005,0.0649239,-0.0247542,0.0798441,-0.0503651,-0.0
 391617,-0.0374301,-0.0213528,0.0570308\Polar=80.7193325,-0.1031655,70.
 3096102,-0.0718361,-12.5968182,56.4033803\PG=C01 [X(C6H10)]\NImag=1\\0
 .66663725,0.07063059,0.63079370,-0.10006516,0.16727210,0.14763206,-0.0
 9042834,0.07622323,0.04926417,0.09060198,0.07967675,-0.25034950,-0.112
 67548,-0.08697146,0.27295966,0.04697513,-0.12726015,-0.07795566,-0.048
 89585,0.11520003,0.08763240,-0.33638920,0.01456345,0.03692053,-0.00676
 882,-0.00070571,0.00024073,0.35520755,0.02010320,-0.05687693,-0.007841
 45,0.02489350,0.00065421,-0.00143958,-0.01520680,0.05424780,0.03107583
 ,-0.00987639,-0.03658275,0.01306653,0.00041561,0.00051727,-0.03793398,
 0.00780993,0.03297842,-0.19056939,-0.09384512,-0.01814663,0.01434669,0
 .00796546,0.00781736,-0.01218506,-0.02973425,0.00341051,0.66722813,-0.
 14748767,-0.30802091,-0.02792809,-0.01094508,-0.02282241,0.01016876,0.
 00461574,0.00603669,-0.00097246,0.00513675,0.71333023,0.01529537,-0.00
 793726,-0.05039060,-0.00845833,-0.01019129,0.00316683,0.00125937,0.001
 87615,0.00125075,-0.03456043,0.04857700,0.14855634,0.01004301,-0.01733
 083,-0.00519860,-0.00107031,-0.00367584,0.00109224,0.00084457,0.000243
 85,-0.00070068,-0.11445416,0.10743276,0.02547805,0.12187893,0.01315168
 ,-0.02072212,-0.00760396,-0.00284036,-0.00271938,0.00082510,-0.0004073
 2,0.00084864,0.00057155,0.10819669,-0.26590749,-0.04048208,-0.11586251
 ,0.28377200,-0.00097731,-0.00220271,0.00573063,0.00161916,-0.00217626,
 0.00630946,-0.00107148,0.00120512,-0.00476165,0.02983015,-0.04300169,-
 0.04384463,-0.02562284,0.04682111,0.03365949,-0.03627040,-0.06219711,0
 .03243306,-0.00345157,0.00413282,-0.00648060,0.00040131,-0.00152497,-0
 .00133597,-0.31242243,0.03939374,0.01117799,-0.01189885,-0.00154345,-0
 .00450059,0.66624626,-0.02294241,0.02819413,-0.01094431,0.00163393,-0.
 00129242,0.00367008,-0.00294195,-0.00474874,0.00185379,-0.03358230,-0.
 12257177,-0.01503811,0.03042726,0.00209213,-0.00074655,-0.00460503,0.7
 1332609,0.00028868,0.00659915,0.00266915,-0.00036761,0.00195603,-0.002
 77305,0.00123815,-0.00092363,0.00697405,-0.01415839,-0.01429451,-0.058
 64593,0.00518581,-0.00014282,0.00179872,0.04110059,0.04749210,0.149364
 70,-0.00413839,0.00728476,0.00018692,-0.00123594,-0.00022597,0.0009014
 5,0.00014651,0.00095511,-0.00129561,-0.03336549,0.02486221,-0.00043986
 ,-0.00550906,-0.00021737,0.00071283,-0.18362227,0.14424176,-0.01683043
 ,0.66011585,-0.00845494,-0.03557114,0.02440068,-0.00387182,0.00221376,
 -0.00512372,-0.00018612,-0.00118571,-0.00116137,0.06400571,0.02564962,
 0.00723925,-0.00232690,0.00178925,-0.00191290,0.09031028,-0.31506642,-
 0.00665465,-0.07352962,0.63465689,0.00070281,0.02439718,-0.02116728,-0
 .00054196,-0.00142843,0.00469606,-0.00036195,0.00037517,-0.00071882,-0
 .03305402,-0.00970926,0.00234515,-0.00014398,-0.00144031,0.00700005,0.
 01595837,-0.02704434,-0.05041152,0.11009579,0.16371667,0.15013165,0.00
 010681,0.00015898,0.00038071,0.00029876,-0.00001352,0.00016119,-0.0000
 7886,0.00010744,-0.00006278,0.00052969,0.00277207,-0.00133305,-0.00070
 244,-0.00008479,-0.00005482,-0.01140428,-0.00409352,-0.00133717,-0.336
 39240,-0.00632194,-0.04024586,0.35498860,-0.00099694,-0.00116368,0.000
 35602,0.00015231,0.00040644,0.00048566,-0.00008894,0.00048886,-0.00016
 960,0.00138190,-0.00487206,-0.00087671,0.00154743,-0.00001529,-0.00007
 781,0.03023572,0.00527560,0.00222480,-0.01190888,-0.05609038,-0.006899
 34,0.00636849,0.05362664,0.00126825,-0.00119054,-0.00070394,0.00008877
 ,0.00050758,-0.00039623,0.00005232,-0.00017051,0.00047585,0.00131356,0
 .00182928,0.00697302,-0.00052643,-0.00002372,0.00038456,-0.00354139,-0
 .00091811,0.00120577,-0.03446517,-0.00903482,-0.03733301,0.04148883,0.
 00678838,0.03382014,-0.00542120,0.00255985,-0.00002756,0.00013142,0.00
 001185,-0.00021943,-0.00074974,-0.00152531,0.00051652,-0.01273841,-0.0
 2997533,-0.00533335,0.00066955,0.00020752,0.00028517,-0.12031346,-0.11
 111587,-0.02741537,0.01006755,0.01643559,0.00501691,0.00083276,-0.0002
 5047,0.00077291,0.12827471,0.00044414,0.00170885,-0.00144177,0.0002193
 0,0.00001778,0.00015725,0.00010661,0.00002716,-0.00003767,0.00197454,0
 .00292829,0.00002812,-0.00020864,0.00095542,0.00093089,-0.11189441,-0.
 25908638,-0.04078915,-0.01397696,-0.02082244,-0.00790249,0.00040139,0.
 00084258,0.00055456,0.11979284,0.27647890,-0.00089525,-0.00186958,0.00
 699623,0.00037731,0.00031802,-0.00078057,0.00004199,-0.00009372,0.0003
 8981,0.00434344,-0.00117720,0.00179125,-0.00021575,0.00093871,-0.00342
 520,-0.03185165,-0.04315337,-0.04447110,0.00095691,-0.00208927,0.00580
 603,0.00116596,0.00117422,-0.00474418,0.02792498,0.04720834,0.03425479
 ,-0.00110763,0.00403038,0.00042892,-0.00173966,-0.00077886,-0.00044252
 ,0.00029688,-0.00015423,-0.00006622,-0.00370242,-0.00160764,0.00041554
 ,0.00012533,-0.00022330,-0.00036074,0.01439823,0.00971999,0.00828357,-
 0.09395645,-0.07920106,-0.05265675,-0.00732379,-0.02463596,-0.01314917
 ,-0.00084863,0.00277439,-0.00175666,0.09464128,0.00034155,0.00210249,-
 0.00145189,0.00084402,0.00050311,-0.00007087,0.00001235,0.00040962,0.0
 0051089,-0.00410278,-0.00113291,0.00190790,-0.00001796,0.00002404,0.00
 033021,-0.00891997,-0.02287480,-0.01053670,-0.08284581,-0.24532530,-0.
 11212121,0.00092754,0.00134265,0.00080034,0.00364255,-0.00290923,-0.00
 209905,0.09075218,0.26742651,-0.00110466,-0.00506240,0.00469410,0.0004
 2031,-0.00008789,0.00074255,-0.00013950,0.00048916,-0.00039528,0.00659
 282,0.00347366,-0.00270144,0.00023308,0.00014854,-0.00078091,-0.007430
 48,0.01049547,0.00317159,-0.05082300,-0.12676558,-0.07920938,-0.000363
 71,-0.00169220,0.00037486,-0.00113578,0.00088663,0.00627581,0.05229705
 ,0.11474040,0.08888030,-0.01011639,-0.04813908,0.04929177,-0.00233427,
 0.00207884,-0.00943585,-0.00051897,0.00124525,-0.00712821,0.04353004,0
 .03076792,-0.00241820,0.00028129,0.00029933,-0.00263795,-0.04485456,0.
 02469876,0.00162465,-0.00482660,-0.04496065,0.04168980,-0.00021559,-0.
 00047951,-0.00078902,-0.00021777,0.00077039,-0.00273406,0.00181766,0.0
 0189552,-0.00807394,0.66726624,-0.00520609,0.01349575,-0.02718088,0.00
 113757,-0.00049733,0.00198800,0.00030369,0.00017523,0.00100366,-0.0217
 7773,-0.01966759,0.00858843,-0.00014235,-0.00034865,0.00085984,0.01487
 419,-0.00992214,0.00408313,-0.00135110,0.00945186,-0.01023278,0.000156
 49,0.00003153,0.00069096,0.00026902,-0.00000320,0.00058798,-0.00031345
 ,0.00014664,0.00183512,0.05244514,0.54220665,0.01065162,-0.04511944,0.
 03089247,-0.00525307,0.00585067,-0.01818645,0.00038128,-0.00114246,0.0
 0053003,0.03600984,0.02792674,-0.00905753,0.00032333,0.00010425,-0.001
 98449,-0.03045893,0.01670978,0.00147799,0.00526328,-0.02327004,0.01791
 726,-0.00001145,-0.00001711,-0.00160873,-0.00031278,0.00027613,-0.0012
 6796,0.00202774,0.00124628,-0.00464373,-0.10991796,0.22163592,0.206697
 54,0.00109436,0.00189677,-0.00157877,0.00014076,0.00021376,0.00032912,
 -0.00008639,0.00006577,0.00010002,-0.00083324,-0.00037665,0.00013347,0
 .00003473,0.00000935,0.00009936,0.00082172,0.00004314,-0.00039082,-0.0
 0072610,0.00047118,-0.00085805,0.00005527,-0.00002341,0.00021898,-0.00
 003165,-0.00000073,0.00007340,-0.00002300,-0.00003543,0.00016657,-0.12
 493733,-0.12077534,-0.02117097,0.13362027,-0.00017623,-0.00491317,0.00
 198344,-0.00061214,0.00066050,0.00004771,0.00027573,-0.00026346,0.0000
 8931,0.00110336,0.00131383,0.00037633,0.00009188,0.00012745,-0.0000139
 9,-0.00155457,0.00039318,0.00052440,0.00051420,-0.00112632,0.00089043,
 0.00001234,0.00001972,-0.00005723,0.00007189,0.00005477,-0.00012124,-0
 .00007705,-0.00001737,-0.00006689,-0.12787151,-0.25357427,-0.06322381,
 0.13231285,0.26357009,0.00187098,0.01288694,-0.00823015,0.00056962,0.0
 0115349,0.00018097,-0.00019080,-0.00016593,0.00043329,-0.00463073,-0.0
 0291053,-0.00079365,-0.00013300,0.00000521,0.00049859,0.00542797,-0.00
 218326,-0.00097625,0.00013033,0.00472736,-0.00404680,0.00007102,-0.000
 01493,-0.00003460,-0.00000346,-0.00009600,0.00034928,-0.00006156,-0.00
 020629,0.00052553,-0.01279681,-0.06048318,-0.03915134,0.02880533,0.061
 35990,0.04667958,0.00094734,-0.00002526,-0.00324646,-0.00014244,0.0002
 2499,-0.00009569,-0.00000099,0.00001095,-0.00002528,-0.00074248,-0.001
 02894,0.00025339,0.00008688,0.00000961,0.00007111,0.00060725,-0.000229
 38,-0.00006405,-0.00063902,0.00065778,-0.00059489,0.00003171,-0.000017
 73,0.00023009,-0.00002257,-0.00006319,0.00005885,-0.00000956,0.0000422
 3,-0.00008183,-0.12045703,0.09104144,0.08020655,0.00896200,-0.01031374
 ,-0.01018808,0.12864188,-0.00104439,-0.00294905,0.00874314,-0.00012596
 ,-0.00003842,0.00026146,-0.00024455,0.00020623,-0.00072533,0.00312224,
 0.00283251,0.00179819,0.00008136,0.00000186,-0.00027896,-0.00234778,0.
 00133561,-0.00038833,-0.00077980,-0.00255623,0.00232300,-0.00007540,-0
 .00006235,0.00008050,-0.00007209,0.00001926,-0.00011494,0.00006343,0.0
 0011522,-0.00042051,0.08904413,-0.18892969,-0.12339298,0.01338164,-0.0
 1350338,-0.01276091,-0.10372291,0.19749815,0.00106474,0.00354231,-0.01
 415214,-0.00019234,0.00031941,0.00009100,-0.00033051,-0.00009805,0.000
 54712,-0.00523846,-0.00364669,0.00037598,-0.00006317,0.00016089,0.0001
 1858,0.00453320,-0.00204762,0.00028150,0.00015403,0.00378182,-0.002933
 30,0.00006420,0.00014211,0.00001414,0.00003259,-0.00004767,0.00018553,
 -0.00020839,-0.00023197,0.00082431,0.09054539,-0.12586413,-0.11523195,
 0.00170198,-0.00188306,-0.00169342,-0.08334255,0.12544828,0.12373264,-
 0.00298220,0.04545966,-0.04224222,0.00168518,-0.00193382,0.00816817,-0
 .00021473,0.00048531,0.00082619,-0.04625381,-0.02378454,-0.00195077,-0
 .00027899,-0.00076277,0.00275120,0.04350333,-0.03289359,0.00315914,-0.
 00790014,0.04931787,-0.05037251,-0.00063242,-0.00120606,0.00714013,0.0
 0025210,-0.00032082,0.00269333,-0.00259148,-0.00210150,0.00967031,-0.3
 7658865,-0.01550797,0.04032359,-0.01423119,0.00545844,-0.00814715,-0.0
 1342227,0.00283216,-0.00797200,0.66187930,0.00177341,0.00793124,-0.008
 87575,0.00023651,0.00020921,0.00157341,-0.00015547,0.00002631,0.000645
 00,-0.01375925,-0.00871394,0.00397610,-0.00026640,0.00003055,0.0004958
 9,0.01971465,-0.01927308,0.00870313,0.00616449,0.01186376,-0.02550194,
 -0.00029826,0.00022140,0.00077289,0.00011906,-0.00034658,0.00078120,-0
 .00110309,-0.00042431,0.00170280,0.02526656,-0.10111139,-0.01633219,-0
 .02782051,0.00452195,-0.00120118,0.02428172,0.00391776,-0.00070947,-0.
 05841440,0.54528276,-0.00618357,-0.02266204,0.01753632,-0.00193662,0.0
 0128249,-0.00459119,0.00002372,-0.00000985,-0.00161520,0.03052307,0.01
 559363,0.00176931,0.00033050,0.00025989,-0.00123473,-0.03468521,0.0286
 7925,-0.00934950,-0.01233979,-0.04439558,0.03024723,-0.00043211,-0.001
 14427,0.00059421,-0.00029568,0.00011334,-0.00197918,0.00558374,0.00569
 944,-0.01804078,-0.04295700,-0.01513199,-0.07726826,-0.00853847,-0.000
 55809,0.00510913,0.01630852,-0.00089616,0.00569640,0.12061419,0.217816
 57,0.20903687,-0.00064844,-0.00076218,0.00070224,-0.00001473,-0.000036
 58,0.00005893,0.00003828,0.00001411,-0.00022987,0.00073680,0.00027119,
 0.00005858,-0.00001745,0.00006433,-0.00006466,-0.00085871,0.00117676,-
 0.00019922,0.00095389,-0.00015990,0.00366546,0.00000527,-0.00000747,0.
 00000262,0.00008391,-0.00001210,-0.00007949,-0.00014508,-0.00022087,0.
 00009502,-0.01427893,-0.02360976,-0.01648907,-0.00514238,0.00137331,-0
 .00147964,0.00134710,-0.00031024,0.00093086,-0.12543570,-0.09219440,-0
 .08463365,0.13460197,0.00071362,-0.00257955,0.00234302,-0.00005369,0.0
 0011614,-0.00042741,0.00007259,-0.00006597,0.00009178,0.00239904,0.001
 27825,-0.00036272,0.00007404,0.00001516,-0.00011483,-0.00304892,0.0028
 9816,0.00176913,0.00084507,-0.00303227,0.00868531,0.00025962,0.0002019
 9,-0.00072124,-0.00008166,0.00000436,-0.00027878,0.00012785,-0.0000340
 8,0.00024928,-0.00224855,0.00482587,-0.00037562,0.00006609,0.00218274,
 -0.00231575,0.00024221,-0.00011832,0.00266739,-0.09018091,-0.18235005,
 -0.12134583,0.10486662,0.19001702,-0.00001958,0.00381017,-0.00297287,0
 .00019144,-0.00023400,0.00083377,-0.00006095,0.00014516,0.00001190,-0.
 00462832,-0.00193389,0.00022352,-0.00003464,-0.00004683,0.00018933,0.0
 0514931,-0.00381422,0.00043247,-0.00082742,0.00366835,-0.01418822,0.00
 032792,-0.00010652,0.00055175,0.00006746,0.00015608,0.00012269,0.00019
 386,0.00030529,0.00011370,0.00786103,-0.00115269,0.00568039,0.00155319
 ,-0.00156338,0.00542164,-0.00080581,0.00268481,-0.00329779,-0.09508039
 ,-0.12349268,-0.11671013,0.08782817,0.12334773,0.12524274,-0.00075722,
 -0.00050808,0.00089706,-0.00001871,0.00003731,-0.00017436,0.00005765,0
 .00002108,-0.00021702,0.00089554,-0.00004652,0.00042222,-0.00003302,0.
 00000336,-0.00007858,-0.00088157,0.00046245,-0.00011755,0.00102808,-0.
 00218548,0.00170083,-0.00009909,-0.00007048,-0.00010528,0.00003144,-0.
 00000675,-0.00010332,0.00016832,-0.00021361,-0.00032227,-0.01354913,0.
 02845626,0.00842701,0.00128216,-0.00060876,0.00075599,-0.00518780,0.00
 019815,-0.00167957,-0.11678832,0.11645538,0.01861835,0.00877420,-0.014
 05301,-0.00171529,0.12507747,-0.00052627,-0.00108012,0.00084518,0.0000
 8015,-0.00002137,-0.00005572,-0.00001329,0.00002005,-0.00004870,0.0015
 1575,0.00033966,0.00052068,-0.00006716,0.00005641,-0.00011737,-0.00102
 518,0.00132084,0.00037794,-0.00003210,-0.00484894,0.00189233,-0.000276
 95,-0.00025365,0.00009168,-0.00008943,0.00013045,-0.00001133,0.0006264
 2,0.00064772,0.00007441,-0.00481253,0.00372072,-0.00087614,0.00057152,
 0.00055374,0.00220505,-0.00110976,0.00223083,-0.00153354,0.12355294,-0
 .26178560,-0.06330078,0.00954718,-0.01335945,-0.00177337,-0.12794130,0
 .27232872,0.00005211,0.00467265,-0.00399558,0.00004847,-0.00020996,0.0
 0051285,-0.00006893,-0.00001550,-0.00003480,-0.00542376,-0.00199476,-0
 .00101835,-0.00000392,-0.00009554,0.00034220,0.00450432,-0.00301059,-0
 .00074859,-0.00138026,0.01287379,-0.00813511,0.00018112,-0.00017270,0.
 00042638,0.00012685,0.00000341,0.00049676,-0.00052842,0.00117723,0.000
 16876,0.00787637,-0.00122739,0.00520475,-0.00064433,0.00221618,-0.0042
 7179,0.00131611,-0.00236127,0.00544141,0.01041877,-0.06035377,-0.03920
 052,0.00983372,-0.01321145,-0.00165490,-0.02630822,0.06170967,0.046466
 52\\-0.00002982,0.00002215,-0.00003890,0.00001365,-0.00000416,0.000019
 79,0.00000084,-0.00000176,-0.00001373,0.00002588,0.00000503,0.00000026
 ,0.00000020,-0.00000558,0.00001229,-0.00006436,-0.00017063,-0.00002715
 ,-0.00001240,0.00014487,0.00005804,-0.00000318,0.00001928,-0.00001046,
 0.00006487,0.00009407,0.00002597,-0.00000943,-0.00008560,-0.00002672,0
 .00000381,0.00002469,0.00002152,-0.00000131,-0.00000618,-0.00000757,0.
 00000690,0.00000459,0.00000439,-0.00000628,-0.00005376,0.00001974,0.00
 001662,0.00001236,-0.00002148,-0.00000599,0.00000064,-0.00001599\\\@


 MY DESCRIPTION OF EXPERIENCE IS NOT WHAT HAPPENS
 TO A MAN.  EXPERIENCE IS WHAT A MAN DOES WITH WHAT
 HAPPENS TO HIM.
                         - CHUCK KNOX, SEATTLE SEAHAWKS, 1985
 Job cpu time:       0 days  0 hours  2 minutes 24.1 seconds.
 File lengths (MBytes):  RWF=     27 Int=      0 D2E=      0 Chk=      2 Scr=      1
 Normal termination of Gaussian 09 at Sun May 12 20:54:08 2019.
